 
data_Se3.96Te0.04W2

 
_audit_creation_method            'SHELXL-2018/3'
_shelx_SHELXL_version_number      '2018/3'
_chemical_name_systematic         ?
_chemical_name_common             ?
_chemical_melting_point           ?
_chemical_formula_moiety          'Se3.96 Te0.04 W2'
_chemical_formula_sum
 'Se3.96 Te0.04 W2' 
_chemical_formula_weight          685.47


loop_
 _atom_type_symbol
 _atom_type_description
 _atom_type_scat_dispersion_real
 _atom_type_scat_dispersion_imag
 _atom_type_scat_source
 'Se'  'Se'  -0.7943   1.1372
 'International Tables Vol C Tables 4.2.6.8 and 6.1.1.4'
 'W'  'W'  -5.4734   5.5774
 'International Tables Vol C Tables 4.2.6.8 and 6.1.1.4'
 'Te'  'Te'  -0.1759   6.3531
 'International Tables Vol C Tables 4.2.6.8 and 6.1.1.4'
 
_space_group_crystal_system       hexagonal
_space_group_IT_number            194
_space_group_name_H-M_alt         'P 63/m m c'
_space_group_name_Hall            '-P 6c 2c'
 
_shelx_space_group_comment
;
The symmetry employed for this shelxl refinement is uniquely defined
by the following loop, which should always be used as a source of
symmetry information in preference to the above space-group names.
They are only intended as comments.
;
 
loop_
 _space_group_symop_operation_xyz
 'x, y, z'
 'y, -x+y, z+1/2'
 'x-y, x, z+1/2'
 '-x, -x+y, -z'
 '-x+y, y, z'
 '-x+y, -x, z'
 'y, x, -z'
 '-y, -x, -z+1/2'
 '-y, x-y, z'
 '-x+y, y, -z+1/2'
 'x, x-y, -z+1/2'
 '-x, -y, z+1/2'
 '-x, -y, -z'
 '-y, x-y, -z-1/2'
 '-x+y, -x, -z-1/2'
 'x, x-y, z'
 'x-y, -y, -z'
 'x-y, x, -z'
 '-y, -x, z'
 'y, x, z-1/2'
 'y, -x+y, -z'
 'x-y, -y, z-1/2'
 '-x, -x+y, z-1/2'
 'x, y, -z-1/2'
 
_cell_length_a                    3.2857(5)
_cell_length_b                    3.2857(5)
_cell_length_c                    12.9773(15)
_cell_angle_alpha                 90
_cell_angle_beta                  90
_cell_angle_gamma                 120
_cell_volume                      121.33(4)
_cell_formula_units_Z             1
_cell_measurement_temperature     298(2)
_cell_measurement_reflns_used     1447
_cell_measurement_theta_min       6.7920
_cell_measurement_theta_max       75.7410
 
_exptl_crystal_description        'platy'
_exptl_crystal_colour             'black'
_exptl_crystal_density_meas       ?
_exptl_crystal_density_method     ?
_exptl_crystal_density_diffrn     9.420          
_exptl_crystal_F_000              284.7
_exptl_transmission_factor_min    ?
_exptl_transmission_factor_max    ?
_exptl_crystal_size_max           0.060
_exptl_crystal_size_mid           0.040
_exptl_crystal_size_min           0.010
_exptl_absorpt_coefficient_mu     121.003
_shelx_estimated_absorpt_T_min    0.052
_shelx_estimated_absorpt_T_max    0.377
_exptl_absorpt_correction_type    multi-scan
_exptl_absorpt_correction_T_min   0.03752
_exptl_absorpt_correction_T_max   1.00000
_exptl_absorpt_process_details
;
CrysAlisPro 1.171.41.119a (Rigaku Oxford Diffraction, 2021)
Empirical absorption correction using spherical harmonics,
implemented in SCALE3 ABSPACK scaling algorithm.
;
_exptl_absorpt_special_details    ?
_diffrn_ambient_temperature       298(2)
_diffrn_radiation_wavelength      1.54184
_diffrn_radiation_type            CuK\a
_diffrn_source                    'SuperNova (Cu) micro-focus sealed X-ray Source'
_diffrn_measurement_device        'four-circle diffractometer'
_diffrn_measurement_device_type   'SuperNova, Dual, Cu at zero, Atlas' 
_diffrn_measurement_method        '\w scans'
_diffrn_detector                  'CCD plate'
_diffrn_detector_type             'Atlas' 
_diffrn_detector_area_resol_mean  10.6144
_diffrn_reflns_number             1976
_diffrn_reflns_av_unetI/netI      0.0147
_diffrn_reflns_av_R_equivalents   0.0742
_diffrn_reflns_limit_h_min        -4
_diffrn_reflns_limit_h_max        3
_diffrn_reflns_limit_k_min        -4
_diffrn_reflns_limit_k_max        4
_diffrn_reflns_limit_l_min        -16
_diffrn_reflns_limit_l_max        16
_diffrn_reflns_theta_min          6.823
_diffrn_reflns_theta_max          75.918
_diffrn_reflns_theta_full         67.684
_diffrn_measured_fraction_theta_max   0.986
_diffrn_measured_fraction_theta_full  0.986
_diffrn_reflns_Laue_measured_fraction_max    0.986
_diffrn_reflns_Laue_measured_fraction_full   0.983
_diffrn_reflns_point_group_measured_fraction_max   0.986
_diffrn_reflns_point_group_measured_fraction_full  0.983
_reflns_number_total              69
_reflns_number_gt                 65
_reflns_threshold_expression      'I > 2\s(I)'
_reflns_Friedel_coverage          0.000
_reflns_Friedel_fraction_max      .
_reflns_Friedel_fraction_full     .
 
_reflns_special_details
;
 Reflections were merged by SHELXL according to the crystal
 class for the calculation of statistics and refinement.
 
 _reflns_Friedel_fraction is defined as the number of unique
 Friedel pairs measured divided by the number that would be
 possible theoretically, ignoring centric projections and
 systematic absences.
;
 
_computing_data_collection
;
CrysAlisPro, Agilent Technologies,
Version 1.171.37.35 (release 13-08-2014 CrysAlis171 .NET)
(compiled Aug 13 2014,18:06:01)
;
_computing_cell_refinement
;
CrysAlisPro, Agilent Technologies,
Version 1.171.37.35 (release 13-08-2014 CrysAlis171 .NET)
(compiled Aug 13 2014,18:06:01)
;
_computing_data_reduction
;
CrysAlisPro, Agilent Technologies,
Version 1.171.37.35 (release 13-08-2014 CrysAlis171 .NET)
(compiled Aug 13 2014,18:06:01)
;
_computing_structure_solution     'Superflip (Palatinus & Chapuis, 2007)'
_computing_structure_refinement 'SHELXL-2018/3 (Sheldrick, 2018)'
_computing_molecular_graphics     ?
_computing_publication_material   ?
_refine_special_details           ?
_refine_ls_structure_factor_coef  Fsqd
_refine_ls_matrix_type            full
_refine_ls_weighting_scheme       calc
_refine_ls_weighting_details
'w=1/[\s^2^(Fo^2^)+(0.0538P)^2^+2.5205P] where P=(Fo^2^+2Fc^2^)/3'
_atom_sites_solution_primary      iterative
_atom_sites_solution_secondary    difmap
_atom_sites_solution_hydrogens    .
_refine_ls_hydrogen_treatment     undef
_refine_ls_extinction_method      none
_refine_ls_extinction_coef        .
_refine_ls_number_reflns          69
_refine_ls_number_parameters      6
_refine_ls_number_restraints      0
_refine_ls_R_factor_all           0.0341
_refine_ls_R_factor_gt            0.0320
_refine_ls_wR_factor_ref          0.0808
_refine_ls_wR_factor_gt           0.0778
_refine_ls_goodness_of_fit_ref    1.161
_refine_ls_restrained_S_all       1.161
_refine_ls_shift/su_max           0.000
_refine_ls_shift/su_mean          0.000
 
loop_
 _atom_site_label
 _atom_site_type_symbol
 _atom_site_fract_x
 _atom_site_fract_y
 _atom_site_fract_z
 _atom_site_U_iso_or_equiv
 _atom_site_adp_type
 _atom_site_occupancy
 _atom_site_site_symmetry_order  
 _atom_site_calc_flag
 _atom_site_refinement_flags_posn
 _atom_site_refinement_flags_adp
 _atom_site_refinement_flags_occupancy
 _atom_site_disorder_assembly
 _atom_site_disorder_group
Se1 Se -0.333333 0.333333 0.62110(15) 0.0094(7) Uani 0.99 6 d S T P . .
W1 W 0.333333 0.666667 0.750000 0.0077(6) Uani 1 12 d S T P . .
Te1 Te -0.333333 0.333333 0.62110(15) 0.0094(7) Uani 0.01 6 d S T P . .
 
loop_
 _atom_site_aniso_label
 _atom_site_aniso_U_11
 _atom_site_aniso_U_22
 _atom_site_aniso_U_33
 _atom_site_aniso_U_23
 _atom_site_aniso_U_13
 _atom_site_aniso_U_12
Se1 0.0094(9) 0.0094(9) 0.0094(9) 0.000 0.000 0.0047(4)
W1 0.0075(7) 0.0075(7) 0.0082(7) 0.000 0.000 0.0038(3)
Te1 0.0094(9) 0.0094(9) 0.0094(9) 0.000 0.000 0.0047(4)
 
_geom_special_details
;
 All esds (except the esd in the dihedral angle between two l.s. planes)
 are estimated using the full covariance matrix.  The cell esds are taken
 into account individually in the estimation of esds in distances, angles
 and torsion angles; correlations between esds in cell parameters are only
 used when they are defined by crystal symmetry.  An approximate (isotropic)
 treatment of cell esds is used for estimating esds involving l.s. planes.
;
 
loop_
 _geom_bond_atom_site_label_1
 _geom_bond_atom_site_label_2
 _geom_bond_distance
 _geom_bond_site_symmetry_2
 _geom_bond_publ_flag
Se1 W1 2.5292(13) 1_455 ?
Se1 W1 2.5292(13) . ?
Se1 W1 2.5292(13) 1_445 ?
 
loop_
 _geom_angle_atom_site_label_1
 _geom_angle_atom_site_label_2
 _geom_angle_atom_site_label_3
 _geom_angle
 _geom_angle_site_symmetry_1
 _geom_angle_site_symmetry_3
 _geom_angle_publ_flag
W1 Se1 W1 81.02(5) 1_455 . ?
W1 Se1 W1 81.02(5) 1_455 1_445 ?
W1 Se1 W1 81.02(5) . 1_445 ?
Se1 W1 Se1 135.95(2) . 14_667 ?
Se1 W1 Se1 81.01(5) . 1_655 ?
Se1 W1 Se1 82.81(7) 14_667 1_655 ?
Se1 W1 Se1 135.95(2) . 14_677 ?
Se1 W1 Se1 81.01(5) 14_667 14_677 ?
Se1 W1 Se1 135.95(2) 1_655 14_677 ?
Se1 W1 Se1 82.81(7) . 14_567 ?
Se1 W1 Se1 81.01(5) 14_667 14_567 ?
Se1 W1 Se1 135.95(2) 1_655 14_567 ?
Se1 W1 Se1 81.01(5) 14_677 14_567 ?
Se1 W1 Se1 81.01(5) . 1_665 ?
Se1 W1 Se1 135.95(2) 14_667 1_665 ?
Se1 W1 Se1 81.01(5) 1_655 1_665 ?
Se1 W1 Se1 82.81(7) 14_677 1_665 ?
Se1 W1 Se1 135.95(2) 14_567 1_665 ?
 
 
_refine_diff_density_max    2.032
_refine_diff_density_min   -1.763
_refine_diff_density_rms    0.564

# start Validation Reply Form
_vrf_PLAT077_Se3.96Te0.04W2
;
PROBLEM: Unitcell Contains Non-integer Number of Atoms .. Please Check
RESPONSE: The synthesis produced substitutional disorder in the 
Se atoms with Te.
;
_vrf_PLAT971_Se3.96Te0.04W2
;
PROBLEM: Check Calcd Resid. Dens. 1.50Ang From W1 1.94 eA-3
RESPONSE: The crystal measured is very tiny. Considering that the 
compound crystallizes in layers, this measured crystal was a tiny 
layer smaller than 0.1 mm. Despite that the unit cell was calculated 
using up to 90 % of the reflections, unaccounted for twinning 
is not discarted. We tried to consider twins in our refinement 
but the best results are reported in this cif file. The wrong assigning 
of atoms is not possible because other techniques confirmed the composition.
;
_vrf_PLAT972_Se3.96Te0.04W2
;
PROBLEM: Check Calcd Resid. Dens. 1.91Ang From Te1 -1.87 eA-3
RESPONSE: The crystal measured is very tiny. Considering that the 
compound crystallizes in layers, this measured crystal was a tiny 
layer smaller than 0.1 mm. Despite that the unit cell was calculated 
using up to 90 % of the reflections, unaccounted for twinning 
is not discarted. We tried to consider twins in our refinement 
but the best results are reported in this cif file. The wrong assigning 
of atoms is not possible because other techniques confirmed the composition.
;
_vrf_PLAT974_Se3.96Te0.04W2
;
PROBLEM: Check Calcd Negative Resid. Density on W1 -1.03 eA-3
RESPONSE: The crystal measured is very tiny. Considering that the 
compound crystallizes in layers, this measured crystal was a tiny 
layer smaller than 0.1 mm. Despite that the unit cell was calculated 
using up to 90 % of the reflections, unaccounted for twinning 
is not discarted. We tried to consider twins in our refinement 
but the best results are reported in this cif file. The wrong assigning 
of atoms is not possible because other techniques confirmed the composition.
;
# end Validation Reply Form

_shelx_res_file
;
TITL 2021Uniandes026_Cu_WSe2_TV0061_V2_Paula_
    shelxs_refined-2.res
    created by SHELXL-2018/3 at 12:20:46 on 01-Apr-2022
CELL  1.54184   3.28574   3.28574  12.97733  90.00000  90.00000 120.00000
ZERR   24 0.0005 0.0005 0.0015 0.0000 0.0000 0.0000
LATT   1
SYMM  Y,-X+Y,Z+0.500
SYMM  X-Y,X,Z+0.500
SYMM  -X,-X+Y,-Z
SYMM  -X+Y,Y,Z
SYMM  -X+Y,-X,Z
SYMM  Y,X,-Z
SYMM  -Y,-X,-Z+0.500
SYMM  -Y,X-Y,Z
SYMM  -X+Y,Y,-Z+0.500
SYMM  X,X-Y,-Z+0.500
SYMM  -X,-Y,Z+0.500
SFAC SE W TE
UNIT 3.996 2 0.04
LIST 4 ! automatically inserted. Change 6 to 4 for CHECKCIF!!
L.S. 10
FMAP 2
PLAN 10
CONF
ACTA
OMIT  -1   2   8
TEMP 25
SIZE 0.06 0.04 0.01
EXYZ Se1 Te1
EADP Se1 Te1
WGHT    0.053800    2.520500
FVAR       5.40072
SE1   1   -0.333333    0.333333    0.621096    10.16500    0.00936    0.00936 =
         0.00944    0.00000    0.00000    0.00468
W1    2    0.333333    0.666667    0.750000    10.08333    0.00754    0.00754 =
         0.00817    0.00000    0.00000    0.00377
TE1   3   -0.333333    0.333333    0.621096    10.00167    0.00936    0.00936 =
         0.00944    0.00000    0.00000    0.00468
HKLF 4




REM  2021Uniandes026_Cu_WSe2_TV0061_V2_Paula_
REM wR2 = 0.0808, GooF = S = 1.161, Restrained GooF = 1.161 for all data
REM R1 = 0.0320 for 65 Fo > 4sig(Fo) and 0.0341 for all 69 data
REM 6 parameters refined using 0 restraints

END

WGHT      0.0538      2.5205

REM Highest difference peak  2.032,  deepest hole -1.763,  1-sigma level  0.564
Q1    1   0.3333  0.6667  0.6485  10.16667  0.05    2.03
Q2    1  -0.5764 -0.1527  0.5716  10.50000  0.05    1.56
Q3    1  -0.3333  0.3333  0.7500  10.08333  0.05    1.42
Q4    1  -0.8267  0.3466  0.6001  10.50000  0.05    1.33
Q5    1  -0.4211  0.1579  0.7157  10.50000  0.05    1.28
Q6    1  -0.0985  0.8030  0.5645  10.50000  0.05    1.26
Q7    1  -0.4327  0.1347  0.5219  10.50000  0.05    1.05
Q8    1  -0.6196  0.3803  0.5000  10.50000  0.05    0.86
Q9    1  -0.2955 -0.1477  0.5275  10.50000  0.05    0.84
Q10   1   0.1036  0.2072  0.6974  10.50000  0.05    0.70
;
_shelx_res_checksum   58023

_shelx_hkl_file
;
   0   0  -1-66.7176 86.9157  16
   0   0  -1-21.8839 113.512   4
   0   0  -2 428037. 7575.44   1
   0   0  -2 420884. 8287.56  19
   0   0   2 425855. 8317.09  18
   0   0  -2 417528. 9738.71  16
   0   0  -2 444617. 8754.22   4
   0   0  -3-1.96025 123.015  19
   0   0   3-3.28811 152.613  18
   0   0  -3 84.5098 52.0042  16
   0   0   3 64.7210 69.2866  17
   0   0  -3 240.018 212.000   1
   0   0  -3 153.280 132.739   4
   0   0  -4 4745.54 972.766   1
   0   0   4 4487.94 1074.81  18
   0   0  -4 4968.35 1069.03  19
   0   0  -4 5479.36 1279.15  16
   0   0  -4 4200.59 981.152   4
   0   0   4 4846.66 965.037  17
   0   0   5 87.2137 129.926  17
   0   0   5 41.4880 105.894  18
   0   0  -5 48.3229 202.246  16
   0   0  -5 56.6491 191.845   4
   0   0  -5 742.547 396.593  19
   0   0  -5 324.932 304.598   1
   0   0  -6 436701. 10499.8   1
   0   0   6 449118. 10982.5  17
   0   0  -6 447075. 11518.2   4
   0   0   6 451101. 11827.9  18
   0   0  -6 453106. 11857.3  19
   0   0  -7-28.5148 92.9660   4
   0   0  -7 201.568 227.889   1
   0   0   7-87.3351 170.483  18
   0   0  -7-62.6768 144.493  16
   0   0  -7-53.3289 128.103  19
   0   0  -8 901440. 19540.8  19
   0   0  -8 891468. 15952.9   1
   0   0   8 844707. 17314.5  17
   0   0  -8 890984. 20604.6  16
   0   0  -8 874273. 18877.8   4
   0   0  -9 179.917 268.029   4
   0   0  -9 500.742 475.467  19
   0   0   9 11.9921 60.2534  17
   0   0  -9-314.436 333.064   1
   0   0   9-404.427 411.579  18
   0   0  -9 261.803 349.999  16
   0   0  10 140303. 8257.85  18
   0   0 -10 137054. 8207.77   6
   0   0 -10 113207. 7269.17  26
   0   0 -10 128836. 8406.80  16
   0   0  10 154289. 8531.35   5
   0   0  10 133738. 7549.22  31
   0   0 -10 132911. 7528.07   4
   0   0 -10 122545. 7585.81  23
   0   0  10 127808. 7043.70  17
   0   0 -10 132956. 8211.27  33
   0   0 -10 127995. 8049.18  15
   0   0 -10 126528. 8034.61  32
   0   0 -11 460.306 457.998   6
   0   0 -11 375.541 430.059  32
   0   0  11 432.743 452.142  18
   0   0 -11 1302.80 753.961   4
   0   0 -11 559.207 512.977  23
   0   0 -11-667.395 578.280  15
   0   0  11-136.333 234.952  31
   0   0 -11 103.842 198.985  26
   0   0 -11 387.264 428.446  33
   0   0 -12 4797.94 1452.05   6
   0   0 -12 4537.05 1485.47  32
   0   0 -12 5542.60 1771.31  33
   0   0  12 5120.68 1546.92  31
   0   0 -12 3452.52 1162.62  26
   0   0 -12 4907.17 1668.42  23
   0   0  12 5221.27 1544.17   5
   0   0 -12 6295.37 1903.03  15
   0   0 -13-41.7669 132.724  10
   0   0 -13-184.310 280.815  15
   0   0  13 1676.34 841.215  22
   0   0 -13 286.622 365.788  32
   0   0 -13 720.896 583.752  33
   0   0 -13-892.115 696.848  23
   0   0  13 426.321 437.237  31
   0   0 -13-303.898 323.705  26
   0   0 -13-129.679 234.049   6
   0   0  14 172167. 7568.81  31
   0   0  14 158045. 7977.68  22
   0   0 -14 170447. 7954.97  32
   0   0 -14 171832. 7891.77  15
   0   0 -14 167997. 8246.91  33
   0   0 -14 162919. 7834.38   6
   0   0 -14 165835. 7285.16  26
   0   0 -15 26.9062 79.7295   6
   0   0  15 278.927 259.128  22
   0   0 -15 361.184 315.309  32
   0   0 -15 27.2287 82.4985  15
   0   0  15-35.5243 92.1713  31
   0   0 -15-43.8182 111.842  33
   0   0 -16 253718. 7352.45  32
   0   0 -16 260396. 7650.84  33
   0   0 -16 256125. 6706.40   6
   0   0 -16 254288. 6790.65  15
   0   0  16 252503. 6817.09  22
   0   0  16 258958. 6572.34  31
   1  -1   0 342659. 6211.52  20
  -1   0   0 357696. 6947.80   3
   0   1   0 342361. 6387.89   2
   0   1   0 337370. 7017.49  21
  -1   0   0 344865. 6380.40   1
  -1   1   0 360135. 7050.30   3
  -1   1   0 346563. 6536.04   2
   0  -1   0 344535. 6812.26  17
   1   0   0 416350. 8596.92  21
   1   0   0 277432. 6230.77  19
   1  -1   0 340972. 5198.50  17
   0  -1   0 350500. 7283.63  20
   0   1   1 44087.1 2300.78   2
  -1   1  -1 37870.0 2342.82   3
   1  -1   1 51755.2 2781.79  17
  -1   0  -1 41728.0 2544.98   1
   0   1  -1 40972.8 2282.57   2
   0  -1   1 42567.1 2675.31  17
  -1   1  -1 40821.3 2031.04   4
   1   0  -1 33958.3 1881.30  16
   1   0  -1 43873.3 3196.83  19
   0  -1  -1 38956.1 2504.75  20
  -1   1   1 38185.6 2254.49   2
   1  -1   1 35505.6 2011.14  20
  -1   1   1 39719.9 2210.89   3
   1  -1  -1 41043.3 2251.06  20
   1  -1  -1 33277.6 985.668  17
   1   0   1 42413.0 2720.95  21
   0  -1  -1 41397.5 2411.74  17
   0   1  -1 40751.5 2487.38  21
  -1   0  -1 42547.5 2418.95   3
   0  -1   1 42261.3 2347.83  20
   1  -1   1 40209.3 1225.14  18
  -1   0   1 47253.9 2306.26   1
  -1   1  -1 34972.1 2215.86   2
   0   1   1 37293.5 2544.28  21
   1  -1  -1 40475.7 2453.66  16
  -1   0   1 39272.6 2417.30   3
   0   1   2 89402.8 3341.63   2
   0   1  -2 91872.1 3735.61   2
  -1   1  -2 85288.8 3333.58   2
   1  -1   2 84904.3 4083.50  17
   1  -1  -2 78548.1 3530.23  16
   0   1  -2 79926.4 3294.54   4
  -1   0   2 83386.3 3754.93   3
   0  -1   2 81683.5 3666.29  17
   0   1  -2 83828.8 3322.52  21
  -1   0  -2 84459.0 3702.25   3
   0   1   2 81818.7 4111.61  21
  -1   1  -2 68222.8 2661.02   4
   1   0  -2 61551.3 4515.04  19
  -1   0  -2 85585.3 4155.31   1
   0  -1  -2 84653.7 3839.22  20
   0  -1   2 79394.2 3352.22  20
   1  -1  -2 83316.6 3207.81  20
  -1   0   2 79992.6 3167.47  17
  -1   0  -2 60855.7 4748.03   4
  -1   1   2 77863.5 3607.21   2
   1  -1   2 74010.6 2899.64  18
   1  -1   2 73133.2 1820.89  21
   1   0   2 85529.4 3686.20  21
   1   0  -2 93059.1 4877.00  16
  -1   1  -2 85499.7 3717.67   1
  -1   1   2 83834.9 3267.18   3
   0  -1  -2 92218.5 3546.74  16
   0  -1  -3 646760. 9198.77  16
   1   0  -3 574742. 15191.5  19
   1   0   3 656494. 10738.2  21
  -1   1   3 646706. 10821.9   2
  -1   0   3 676193. 10058.8  17
  -1   1  -3 680603. 10580.8   4
   0   1  -3 646334. 9377.54  21
  -1   1  -3 687621. 10277.4   2
  -1   0   3 646196. 11626.5   3
   1  -1  -3 644742. 9537.01  20
   0  -1  -3 651839. 10325.0  20
   1  -1  -3 641252. 11257.8  19
   1   0  -3 646966. 7573.37   4
  -1   1   3 644882. 7268.67  18
   0  -1   3 649961. 11127.7  17
   0   1   3 618173. 13201.1  21
  -1   0  -3 594514. 14177.4   1
   0   1  -3 648071. 10210.4   4
  -1   1  -3 649107. 12808.7   1
   0  -1   3 637687. 10367.3  18
  -1   1   3 666001. 9911.68   3
   0   1  -3 659809. 11970.6  19
   0   1  -3 660587. 12112.6   2
   0  -1   3 639080. 9672.74  20
   1  -1   3 540786. 10716.5  18
   1  -1  -3 638568. 10456.6  16
   0   1   3 642812. 9427.88   2
  -1   0  -3 639934. 10669.6   3
   1  -1   3 501994. 14520.2  17
   0  -1  -3 648029. 10541.1   1
  -1   0  -3 653663. 14554.9   4
   1  -1  -4 1135.38 497.939  16
  -1   0   4 1162.67 437.403  17
  -1   0  -4 1723.32 781.921   4
  -1   1   4 1776.12 565.203   3
   0   1  -4 1539.95 475.102  21
  -1   1   4 1150.17 470.479  18
   1   0   4 832.453 383.662  18
   1   0  -4 1362.89 788.097  16
   1   0  -4 1102.73 328.555   4
   1  -1  -4 902.917 492.685  19
   1  -1  -4 661.591 317.584  20
   0   1   4 675.948 301.293   2
  -1   1  -4 951.289 391.566   2
  -1   0   4 862.064 421.623  18
   0  -1   4 1998.71 621.387  20
   0  -1   4 1213.85 601.987  17
  -1   1  -4 898.365 446.393   4
  -1   0   4 817.587 516.587   3
   1   0   4 864.726 400.817  21
   1   0  -4 982.682 743.999  19
   0   1   4 1148.12 416.441  18
   0  -1  -4 759.024 473.482  20
  -1   1  -4 1020.74 644.867   1
   0  -1  -4 1340.47 510.936   1
   0   1  -4 1305.19 498.044   4
   0  -1   4 1108.65 458.070  18
   0   1  -4 1174.97 612.141  19
   0   1   4 1039.62 592.394  21
   1  -1   4 999.509 685.787  17
   0  -1  -4 1358.26 517.360  16
   0   1  -4 1424.17 696.251   2
  -1   0  -4 1006.41 715.448   1
   1  -1   4 840.252 497.110  18
   1   0  -5 573661. 14923.2  16
   0   1   5 482588. 16065.7  21
   0  -1  -5 472101. 9615.26  19
   0   1  -5 554123. 17331.2  19
   0  -1  -5 467136. 10300.3   1
   0  -1  -5 487550. 12459.9  20
  -1   0   5 519453. 14542.1   3
  -1   0  -5 536237. 14131.6   4
   1   0   5 478003. 10605.2  21
  -1   1   5 384791. 14588.3  18
   1  -1  -5 491496. 12462.6  16
  -1   1  -5 505175. 12464.6   4
  -1   0   5 490584. 10366.6  17
  -1   0  -5 355427. 14537.2   1
   1   0  -5 524928. 14779.0  19
  -1   0   5 499923. 11424.5  18
   1  -1   5 534304. 13961.8  18
  -1   1   5 484310. 10840.4   3
   0  -1   5 503659. 12810.9  17
   1   0  -5 454719. 8912.28   4
  -1   1  -5 429584. 14718.0   1
   1   0   5 455415. 11049.8  18
   1  -1  -5 471409. 12052.7  20
   0   1   5 476096. 11417.8  18
   1  -1   5 558446. 14108.6  17
   0   1  -5 514692. 13073.6   2
   0  -1   5 578202. 14274.0  18
   0   1  -5 510012. 11305.9   4
   1  -1  -5 451723. 12121.0  19
  -1   1  -5 477851. 10117.9   2
   0  -1  -5 480490. 12459.0  16
   1  -1  -5 476294. 14919.5   4
  -1   0  -6 73363.4 5599.60   1
  -1   1  -6 82399.4 4899.71   2
  -1   0   6 88540.9 5610.43  18
   0   1  -6 86993.9 11182.5  19
   0  -1  -6 70991.0 6464.73  16
   0   1   6 78264.8 8747.46  21
  -1   0   6 90319.5 5069.29  17
   1   0  -6 79622.5 4297.05   4
  -1   1  -6 59729.5 4821.91   4
   1   0   6 70653.2 4772.67  21
   0   1   6 78061.1 5527.48  18
   1   0   6 81076.4 5756.85  18
  -1   0   6 52445.1 5064.87   3
   0  -1  -6 92657.4 6726.02  20
   1  -1  -6 72423.9 4659.48   4
   0  -1  -6 84356.8 4935.81  19
  -1   1   6 88437.8 5196.63   3
   0   1  -6 62296.8 6339.35   2
   1  -1  -6 82413.7 6444.89  19
   1  -1   6 103905. 6268.26  17
   0  -1   6 55991.5 5028.92  17
   0  -1  -6 88986.2 5157.75   1
   0  -1   6 104133. 6849.52  18
   1  -1  -6 87513.2 6825.25  16
  -1   1  -6 128701. 8430.83   1
   1  -1   6 103272. 6101.44  18
   0   1  -6 92958.1 5562.50   4
  -1   1   6 83803.5 5497.61  18
  -1   0  -6 97841.7 5925.18   4
   1   0  -6 152915. 8927.96  19
   1   0  -6 95137.5 6197.45  16
   0  -1  -7 17536.8 3952.32   4
   1   0   7 7851.20 1975.69  18
   1  -1  -7 12804.8 1963.28   4
  -1   0  -7 16291.5 2559.19   4
   0  -1   7 9463.74 2264.40  18
   1  -1  -7 7600.66 2143.27  19
   0   1  -7 20726.0 4077.30   2
   0  -1  -7 15686.9 2941.84  16
   1   0  -7 16013.9 2840.80  19
  -1   0   7 11646.4 2508.76   3
  -1   0   7 8825.09 2183.31  18
   1  -1   7 19480.9 3120.77  17
  -1   0  -7 14497.3 2466.19   1
  -1   1   7 8321.21 1735.21   3
  -1   1  -7 7826.73 1868.58   2
   0   1  -7 10811.1 2355.63   4
   0   1   7 24024.3 4877.81  21
   0   1   7 9431.90 2070.48  18
   1  -1   7 17875.6 2896.45  18
   0   1  -7 33995.7 4974.98  19
   1  -1  -7 5679.00 1951.66  16
   1   0  -7 16375.0 2702.26  16
  -1   1  -7 9523.38 2099.83   4
   0  -1  -7 10639.0 2183.86   1
  -1   1  -7 16252.4 2677.52   1
  -1   1   7 19015.9 2822.71  18
   0  -1   7 11564.1 2408.53  17
   0  -1  -8 164595. 9570.30   4
  -1   1   8 206445. 8647.10  18
   0  -1  -8 188311. 10232.1   1
  -1   0   8 201023. 10892.5   3
  -1   0  -8 208205. 9354.90   4
   0   1  -8 176611. 10085.1   4
   0   1  -8 204599. 10584.5   2
  -1   1  -8 182467. 9823.60   2
   1  -1  -8 201220. 11143.3  19
  -1   1  -8 191799. 9252.40   1
   1   0   8 187429. 10028.6  18
   0   1   8 190473. 9650.80  18
   1  -1   8 213557. 9592.78  17
   1  -1  -8 199349. 12035.6  16
   0  -1  -8 195949. 9381.53  16
   1  -1   8 219195. 10355.8  18
   0  -1   8 192634. 10908.9  18
  -1   0   8 126120. 8766.27  18
  -1   1  -8 196425. 10025.6   4
   0  -1   8 233511. 11352.8  17
   1   0  -8 209147. 10421.8  19
   0   1  -8 293680. 15650.6  19
  -1   0  -8 189717. 9421.06   1
   1   0  -8 200291. 10345.8  16
   1  -1  -8 184540. 7801.26   4
   1   0   9 43088.7 4903.32  18
   1  -1  -9 45023.5 5198.11  16
  -1   1   9 40575.6 4924.55  22
   0   1  -9 39650.1 4619.26  15
  -1   0   9 39193.6 4159.29  24
  -1   1   9 21753.6 4971.36   5
   0  -1  -9 44853.6 5033.41  26
  -1   0   9 43601.5 4507.92  14
   1  -1  -9 63648.7 5809.64   6
   0  -1  -9 38182.9 4723.21  16
  -1   1  -9 48046.4 5591.66  33
   0   1  -9 38459.8 4397.59  33
  -1   0  -9 40938.5 4214.53  13
  -1   0   9 31502.6 5409.98   5
  -1   0   9 38058.9 4048.22  31
   0  -1   9 40626.2 4466.99  17
   1  -1  -9 48035.5 4793.27  26
   1   0  -9 48194.4 5277.34  16
  -1   1  -9 45440.2 4714.58  23
   0   1   9 51109.9 4992.42  31
  -1   0   9 40551.2 4222.31  27
   1  -1  -9 47919.3 4862.02  15
  -1   0  -9 49999.2 5148.65   4
  -1   0  -9 42496.6 4844.57   6
   1   0  -9 40010.3 4636.46  32
  -1   0  -9 46593.1 4745.18   1
  -1   0  -9 44212.0 5537.39  32
  -1   1  -9 48797.1 5036.37   4
  -1   1  -9 36950.0 4150.66  15
   1   0  -9 42958.8 4633.77  23
  -1   0  -9 45162.4 5641.31  33
   1  -1  -9 42581.0 4482.25  32
   0   1  -9 67004.9 7041.14   2
  -1   1   9 43394.7 4762.79  31
   0  -1  -9 43867.3 4889.67  29
   1   0  -9 49117.0 5664.62  19
  -1   0  -9 46156.1 4900.01  15
  -1   1   9 47278.7 5228.40  24
   0  -1  -9 47083.5 5078.98   6
   1  -1   9 48598.8 5098.34  18
   0   1   9 43606.4 4617.54  18
  -1   0  -9 48229.9 5839.62  10
   0  -1  -9 49739.4 5373.82   4
   0   1   9 42593.6 4883.48  22
   1   0  -9 40781.5 4486.89  33
  -1   0   9 48498.9 5255.12   3
   1  -1   9 43526.5 4565.97  17
   1   0  -9 47113.0 4454.70  15
   1  -1  -9 43920.7 5004.54  19
   0   1  -9 45289.5 5103.30   6
   0  -1  -9 50077.8 5426.52  32
   0   1  -9 46920.9 5480.73  19
   0  -1   9 49014.6 5690.54  18
  -1   0   9 44679.9 4898.05  18
  -1   1  -9 41275.1 4146.35   8
   1   0   9 37435.4 4127.29  17
   0   1  -9 42803.5 4605.48   4
   1   0   9 47881.6 5329.90  22
  -1   1  -9 38418.7 4237.74   1
  -1   1  -9 33157.2 4112.60   6
   1   0  -9 42202.7 4365.37   6
   0  -1   9 36833.8 4173.70  24
  -1   1  -9 40154.7 4146.67  13
  -1   0  -9 43230.6 4305.21   8
   0  -1  -9 48217.6 5283.23  15
   0   1  -9 42855.1 4819.37  23
  -1   1 -10 29727.8 4427.30  33
   1   0 -10 25074.7 3438.20  15
   1  -1 -10 20634.5 2986.11  29
   0   1  10 29263.8 3874.45  31
  -1   1 -10 26393.0 3598.31  23
  -1   1  10 28721.8 3793.89  31
  -1   0  10 24525.3 3177.26  14
   0   1 -10 26667.2 4060.76   2
   0  -1 -10 24510.4 3459.64  26
   1   0 -10 27655.2 4185.77  16
   0  -1  10 27229.4 3550.64  24
  -1   1 -10 23007.3 3216.06  15
   1   0 -10 26824.7 3865.10  32
   0  -1  10 33619.4 4373.19  17
  -1   0 -10 30462.3 4264.90  26
  -1   0 -10 25320.7 3657.30  15
  -1   0  10 21830.2 3008.36  24
  -1   0 -10 27399.8 3622.07   1
  -1   1 -10 28704.8 3965.94   4
  -1   1  10 31917.9 4185.61  22
  -1   0 -10 30511.4 4723.08  33
   1   0 -10 24400.6 3504.69  23
   1  -1 -10 26942.2 4474.28  16
   1   0  10 32059.4 3999.02  22
   0   1 -10 26567.0 3771.71  15
  -1   0 -10 31520.6 3906.42   8
  -1   0 -10 23122.0 2992.52  13
   1  -1 -10 26426.7 3542.97  26
  -1   1 -10 25215.7 3327.19   6
   0   1 -10 25455.5 3658.18  33
   0  -1 -10 28041.3 3737.39   4
   0   1 -10 27737.0 3881.37  23
   1   0 -10 33955.9 4809.34  19
   1  -1 -10 26643.5 3709.34   6
   1  -1  10 30430.9 4047.19  17
   0   1 -10 25183.7 3492.24   4
   0  -1 -10 28135.3 3940.04   6
  -1   0  10 24830.6 3824.09   3
   1   0 -10 28973.9 3590.22   6
  -1   0 -10 26771.5 4233.18  32
   1  -1 -10 30222.0 3834.16  32
   0   1 -10 26256.1 3706.06   6
   1  -1 -10 27657.1 3955.21  19
  -1   0 -10 28820.3 4443.14  10
   0   1  10 28131.6 3967.19  22
  -1   1  10 31622.3 4160.29  24
   0   1 -10 23868.0 3710.09  19
   0   1 -10 23465.7 3238.54  32
  -1   1 -10 14452.8 2934.30  13
   1   0  10 29435.9 3940.70  18
   0   1  10 22501.4 3342.09  18
   1  -1  10 25013.0 3328.91  18
   0  -1  10 30161.2 4415.61  18
  -1   0  10 16886.5 3079.95  18
   0  -1 -10 31725.5 4296.36  29
  -1   1  10 23299.5 5726.77   5
  -1   0  10 19363.7 3378.66   5
   0  -1 -10 27400.3 4083.44  32
   1   0  10 24973.3 3447.83  17
  -1   0 -10 29523.1 4005.05   6
  -1   1 -10 23159.2 2897.71   8
  -1   0  10 28719.7 3779.57  31
  -1   0  10 22818.5 3077.07  27
   0  -1 -10 26680.8 3921.80  15
   1   0 -10 24400.3 3377.20  33
   1  -1 -10 26519.7 3701.46  15
  -1   0 -10 28634.2 3823.14   4
   1  -1 -11 357415. 12653.3   6
   1   0 -11 309932. 11238.3  15
  -1   1 -11 355915. 12837.2  15
  -1   1  11 348119. 13208.7  31
   0  -1  11 446850. 16270.9  24
  -1   1  11 295631. 25971.3   5
   0  -1 -11 340848. 14079.2  32
   0  -1 -11 350272. 13680.4  29
  -1   0 -11 341474. 15425.0  33
  -1   0  11 355115. 13117.9  24
   1   0 -11 352102. 13698.6  32
   0  -1 -11 377910. 13989.0   6
   0   1 -11 336263. 12167.4  32
  -1   0  11 386929. 13871.0  31
  -1   0 -11 340233. 12372.4  13
   0   1  11 357985. 13095.9  31
   0   1 -11 356876. 13868.0   6
  -1   1 -11 336232. 12360.0   6
   0   1 -11 350377. 13814.7  23
   1   0  11 360842. 12615.7  22
  -1   1  11 346731. 12338.8  22
  -1   0 -11 346527. 12627.9   6
   0  -1  11 360661. 13197.3  31
   1   0 -11 318142. 11159.5   6
   0   1 -11 342427. 13438.0  15
   0   1 -11 373166. 14506.4  33
  -1   0 -11 343687. 12993.1  15
   0  -1 -11 364330. 14303.4  15
  -1   0 -11 298733. 13818.3  10
  -1   1 -11 352015. 12628.1  13
  -1   1 -11 361772. 15124.1  33
  -1   1 -11 343746. 14555.6  23
  -1   0  11 347542. 14524.7  27
   0   1  11 369809. 14095.1  22
   1  -1  11 372597. 13531.3  31
   1  -1 -11 346129. 13195.8  32
   1   0 -11 350538. 13353.3  33
   1   0 -11 319839. 12301.2  23
   1  -1 -11 343274. 13448.0  29
   0  -1 -11 345528. 13634.1  26
   1  -1 -11 355166. 12863.1  15
  -1   0 -11 359152. 14913.3  32
  -1   0  11 358751. 18355.1   5
  -1   1  11 356228. 13193.0  24
  -1   1 -11 357660. 11929.2   8
   1  -1 -11 358180. 13547.2  26
  -1   0 -12 1477.31 765.077  15
   0  -1  12 4767.99 2085.14   5
   1  -1 -12 825.432 599.395  32
  -1   1  12 599.395 502.810  31
  -1   0 -12 1325.82 735.579  13
   0  -1 -12 1679.83 910.791  15
  -1   0 -12 1258.04 626.631   8
  -1   0  12 860.235 714.191  24
   1  -1 -12 210.358 283.746  15
   0  -1 -12 1494.83 937.004  26
   0   1 -12 1413.34 857.999  15
   1   0 -12 1233.79 785.699  32
  -1   0 -12 1107.62 810.681  33
   1   0 -12 1119.06 649.786   6
   0  -1  12 1519.81 820.454  24
   1   0  12 1138.45 667.199  22
   1  -1 -12 330.253 357.861  26
   0  -1 -12 1252.70 770.353  32
   1   0 -12 1266.43 747.952  26
   0   1  12 959.533 691.379  22
  -1   0  12 1146.90 906.895   5
   0   1 -12 1767.55 966.831   6
   0   1 -12 582.463 585.309  33
   0   1 -12 1401.76 819.431  23
  -1   1 -12 1157.22 795.853  23
   1  -1 -12 1116.21 801.105  29
  -1   1 -12 1243.16 705.430  13
  -1   1  12 1489.37 733.790  22
   1   0 -12 1364.26 713.193  29
   0   1  12 1714.11 849.122  31
  -1   0 -12 1788.20 987.683  10
   0  -1 -12 1106.17 716.027  29
   0  -1  12 1348.49 781.051  31
  -1   1 -12 1206.40 814.553  33
   0  -1 -12 1362.15 803.095   6
  -1   0 -12 1691.39 793.763   6
   1  -1 -12 974.570 596.001   6
   1  -1  12 1874.85 909.080  31
  -1   1  12 434.241 416.055  24
  -1   1 -12 1641.45 830.991  15
   1   0 -12 706.621 603.362  33
   1   0 -12 1986.69 941.872  23
  -1   0 -12 1026.41 787.599  32
   0   1 -12 292.684 330.903  32
   1   0 -12 1429.69 772.363  15
  -1   0  12 889.587 597.284  31
  -1   1 -12 900.450 576.325   6
  -1   1  13 165293. 8140.79  31
  -1   0 -13 162950. 9102.08  32
   0  -1 -13 151557. 7758.11  32
   1  -1 -13 162546. 7834.86  26
   0  -1 -13 177609. 8548.14   6
   1  -1 -13 135957. 6678.25  29
   0  -1 -13 172804. 8645.98  26
  -1   0 -13 166092. 9371.86  33
   0  -1  13 166771. 7868.30  31
   0  -1  13 150185. 7072.95  24
   0   1 -13 145306. 7090.81  32
   1   0 -13 133206. 8507.23  15
   1  -1  13 172262. 7722.39  22
   0   1 -13 169842. 8663.19  33
   1  -1  13 160529. 7485.83  31
  -1   1 -13 161460. 7162.96  13
   1   0 -13 153781. 7418.69  26
   0   1 -13 170545. 8230.85   6
   1   0 -13 166227. 8486.81  33
  -1   0  13 167200. 7818.70  24
   0  -1  13 206077. 10081.2   5
  -1   0 -13 154039. 7489.92  15
  -1   1  13 147708. 6820.59  22
  -1   1  13 168086. 8303.23  24
  -1   0  13 224117. 11198.5   5
  -1   0 -13 148230. 7202.63   6
  -1   0 -13 177906. 9334.81  10
  -1   0  13 155210. 7210.49  31
  -1   1 -13 161995. 7557.46   6
  -1   1 -13 161757. 8786.50  33
   1   0  13 162243. 7548.63  22
   1  -1 -13 152128. 7042.25  15
   1   0 -13 154913. 7573.73  32
   0   1  13 177319. 8575.45  22
   1   0 -13 165606. 7452.41   6
   0   1 -13 172966. 8678.29  23
   1   0 -13 137918. 7182.59  23
   1  -1 -13 162748. 8188.16  32
   0   1 -13 182488. 8741.55  15
   0  -1 -13 184724. 8649.45  15
   1  -1 -13 149860. 6739.26   6
   0  -1 -13 164486. 8279.42  29
  -1   0 -13 150494. 6925.57  13
  -1   1 -13 182205. 8490.79  15
   0  -1 -13 163832. 8674.49  10
   0   1  13 226140. 10574.0  31
   1   0 -14 37013.2 3063.87  15
   1   0 -14 38839.9 3538.77  33
   1   0 -14 40556.3 3277.94  26
  -1   0 -14 37614.3 3003.30  13
   0  -1 -14 42750.2 3701.83   6
   1  -1 -14 39845.2 3456.11  26
   1  -1 -14 36357.9 3310.09  29
  -1   0 -14 40674.0 3994.18  32
  -1   1 -14 38117.8 3710.41  33
  -1   0  14 39877.3 3414.19  22
   1   0  14 38213.5 3240.80  22
   1   0 -14 40866.5 3320.39   6
   0  -1 -14 40341.1 3595.24  26
   0  -1  14 46930.6 3816.25  24
  -1   0  14 39887.3 3483.74  24
   1   0 -14 40938.2 3877.73  23
   0   1 -14 50010.0 4626.34  23
   1  -1  14 45880.3 3715.77  31
  -1   1 -14 40054.7 3174.01  15
   1  -1  14 40680.6 3240.41  22
   0  -1  14 56114.0 4555.82   5
  -1   0  14 69805.3 6469.01   5
   0   1 -14 45662.0 4284.94  33
   0  -1 -14 35916.1 3366.67  29
  -1   0 -14 40701.2 3283.74  15
   0   1  14 45372.4 3748.42  22
  -1   1  14 39062.9 3040.15  22
  -1   1 -14 39975.9 3182.58  13
  -1   0 -14 39028.4 3211.57   6
   0   1  14 38658.4 3340.71  31
   1  -1 -14 36468.1 3013.77   6
  -1   1  14 34235.5 3345.87  24
   0   1 -14 55088.0 4551.93  15
  -1   0 -14 41720.5 3818.44  10
   0  -1 -14 43749.5 4041.00  10
  -1   1 -14 40039.3 3218.80   6
   1   0 -14 43533.9 3952.06  32
   0  -1 -14 36942.8 3650.77  32
   1  -1 -14 38610.0 3491.60  32
   0  -1 -14 40178.5 3631.04  15
   0  -1  14 47339.0 3995.64  31
   0   1 -14 46128.6 3879.96   6
  -1   1  14 65274.4 5220.94  31
  -1   0  14 37268.3 3033.45  31
   1  -1 -14 36764.6 2991.62  15
   1   0 -15 3213.56 688.559  15
   0  -1 -15 2651.53 644.244  29
  -1   1 -15 4319.68 1040.72  33
  -1   1  15 3965.23 930.814  31
   0  -1 -15 3205.10 913.739  32
   0   1  15 4364.62 1004.51  22
  -1   0 -15 3185.28 822.760  32
   0   1 -15 4234.91 1110.32  23
   0  -1 -15 4424.24 1011.67  15
   1   0 -15 2983.34 625.449  26
   1  -1 -15 4512.96 1083.76  26
   0  -1 -15 3013.15 760.310  26
   0  -1  15 5120.01 1261.85   5
   1  -1 -15 2893.22 677.687  15
   1   0  15 3747.34 861.661  22
  -1   1  15 3458.05 729.920  22
   1  -1  15 2643.76 648.410  22
  -1   0  15 2760.06 620.960  22
   0  -1  15 4367.27 1003.65  22
  -1   1 -15 3765.31 710.124  15
   0  -1  15 4181.23 953.905  31
   1   0 -15 3007.57 750.423  33
   0  -1 -15 3433.84 893.030  10
   1  -1 -15 4038.70 887.420  10
   0   1 -15 5115.17 1091.06  15
   0  -1 -15 3625.84 914.725   6
  -1   0 -15 2342.56 611.584   6
   1  -1 -15 3197.99 712.116   6
  -1   1 -15 2545.23 561.413   6
   1   0 -15 2932.16 632.228   6
  -1   0 -15 3697.14 779.775  10
  -1   0  15 4027.53 855.245  31
   1  -1 -15 3192.80 798.984  32
   1   0 -15 4573.60 1121.24  32
  -1   0 -15 3870.45 822.155  15
   1  -1  15 3246.41 711.723  31
   0   1 -15 4237.51 1005.53   6
   0   1 -15 4412.49 1075.87  33
   1  -1 -15 4789.98 961.234  29
  -1   0  15 3047.71 736.747  24
  -1   2   0 921748. 16687.0   2
   2  -1   0 955106. 16449.3  21
   1   1   0 902493. 17552.9  21
   1  -2   0 936279. 17231.4  20
  -2   1   0 920172. 17308.5   3
  -1  -1   0 888478. 17085.0   1
  -2   1  -1 203.601 259.837   3
  -2   1   1 280.586 296.386   3
   1  -2   1-93.6481 133.756  17
   1  -2  -1 13.8370 74.3232  20
   1  -2  -1-472.572 389.037  16
   1  -2   1 169.423 221.647  20
   2  -1   1 241.175 249.305  21
  -1  -1  -1-27.3720 94.3437  20
   2  -1  -1 345.060 570.046  19
   1   1   1 62.4570 150.030  21
  -1  -1  -1 12.4436 260.613   1
  -1   2  -1-61.9030 135.743   2
   1   1  -1 97.4683 183.467  21
  -1   2   1 202.841 236.154   2
  -1  -1   1 4.71743 29.9814   3
  -1   2   2 244133. 8584.79   2
   1  -2   2 243709. 8714.46  20
  -2   1  -2 234662. 8432.55   1
  -1   2  -2 245702. 8619.92   2
  -1  -1  -2 238776. 8861.78   1
   1   1  -2 253380. 9934.79  21
   1   1   2 241990. 9647.28  21
   1  -2  -2 252305. 8927.28  20
  -1  -1  -2 246509. 10280.4  20
  -1  -1   2 241707. 8449.21   3
   1  -2  -2 264149. 9685.07  16
  -2   1   2 243508. 9027.63   3
   1  -2   2 244762. 7967.50  17
  -2   1  -2 251002. 9467.94   3
   1   1  -2 252841. 7924.81   2
  -1  -1  -3-35.3325 104.699   1
  -1  -1  -3 2389.12 1182.07  20
  -1   2   3 77.2465 156.824   2
   1  -2   3 135.509 202.991  17
   1  -2  -3 91.4589 182.000  20
   1  -2  -3 2112.25 902.127  16
   1   1  -3 430.191 440.062  21
   1   1   3-243.017 293.988  21
   2  -1  -3-222.956 419.675  19
  -2   1  -3-25.4804 100.431   1
   1  -2  -3-255.881 263.811   1
  -2   1   3 728.464 520.226   3
   1   1  -3 189.162 236.684   2
   2  -1   3-607.326 577.964  17
  -1  -1   3 158.943 243.570  17
  -1  -1   3 402.391 351.947   3
   1  -2   3 5.40794 44.3713  20
   1   1  -3-116.915 206.084  19
  -1   2  -3 518.266 410.446   2
  -2   1   4 4830.23 1458.58   3
  -1   2   4 6029.23 1532.49   2
  -1  -1  -4 4052.16 1222.09   1
   1  -2  -4 5176.36 1402.01  20
  -2   1  -4 2689.14 1146.02   1
  -1  -1   4 5229.42 1519.49  17
   2  -1  -4 4032.43 1634.64  16
   1  -2   4 4831.06 1352.70  17
   1   1  -4 6726.79 1872.99  21
   1   1   4 4916.83 1422.90  21
   1  -2   4 4957.07 1425.35  20
   2  -1  -4 4529.40 1843.24  19
   1   1  -4 4903.66 1606.36  19
   1   1  -4 5949.99 1584.45   2
   2  -1   4 5979.43 1827.52  17
  -1   2  -4 5600.95 1447.92   2
  -1  -1   4 5973.10 1521.33   3
   1  -2  -4 7292.14 1663.25  16
  -2   1   5-97.2932 218.617   3
  -1   2   5 336.356 398.335   2
  -1  -1  -5-115.721 219.761   1
  -1  -1   5 534.662 539.980   3
   2  -1  -5 209.575 372.289  16
   1   1  -5 443.210 653.130  21
  -1   2  -5 275.592 337.078   4
   1   1   5 499.788 538.103  21
   1  -2   5 293.874 366.286  20
   1  -2  -5 115.119 246.634  20
   1  -2  -5 938.979 651.898  19
   2  -1  -5 802.110 910.316  19
   1   1   5-251.188 304.978  18
   1   1  -5-9.69025 79.5070   2
   2  -1   5-395.690 468.603  17
   1  -2  -5 390.133 426.482  16
   1   1  -5-245.336 397.325  19
  -1  -1   5 1582.66 746.306  17
   1  -2   5 736.424 632.243  17
  -1   2  -5 504.524 470.727   2
  -2   1  -5 1638.87 945.328   1
  -2   1   6 256615. 13251.0  27
  -1   2  -6 221921. 13164.5  28
   1  -2  -6 283182. 12360.1  19
   1   1   6 270249. 10931.9  22
  -1  -1   6 226605. 12431.8  27
  -1  -1  -6 208589. 11612.0  13
  -2   1  -6 229961. 11106.4   8
   1   1  -6 190210. 12335.0   2
  -1  -1   6 246587. 12138.8  14
  -1  -1  -6 163419. 11497.5   4
  -1  -1  -6 245262. 12079.8  26
  -2   1  -6 276512. 12721.8   1
  -1  -1   6 247089. 11842.1  30
  -1  -1  -6 243691. 12934.9  29
  -1  -1  -6 187298. 13317.6  25
   1  -2   6 253289. 11613.4  20
   1   1   6 241464. 11908.0  21
  -2   1  -6 248734. 12248.6  13
  -1   2  -6 246175. 10782.2  12
   1   1  -6 297981. 12236.9  23
  -1  -1  -6 270188. 12858.3  32
   1   1  -6 196883. 14427.8  21
  -1  -1  -6 179649. 12827.5   8
  -1   2  -6 254422. 11735.1   4
  -1  -1  -6 264494. 10901.7   6
  -1  -1  -6 274260. 13209.7   1
  -2   1   6 194097. 10764.7  24
  -1   2   6 282206. 12407.2  31
   1  -2  -6 275276. 12096.5  20
   1   1  -6 253293. 11328.8  33
  -2   1  -6 247337. 13084.1  10
  -1  -1   6 225577. 12375.5   3
   2  -1  -6 238071. 12847.3  19
  -1  -1  -6 233677. 12577.7  10
   1   1  -6 148334. 12497.7  19
   1   1   6 260679. 11218.2  18
  -2   1   6 270575. 12524.0   3
  -1   2  -6 249028. 10840.7   9
   2  -1   6 268977. 11742.3  17
   1  -2   6 202447. 11553.4  17
  -1  -1   6 254450. 12741.5  17
  -1   2   6 259492. 10599.5   9
   2  -1  -6 258715. 11868.5  16
  -2   1   6 238186. 12876.7  14
  -1  -1   6 232362. 11131.0  24
  -1   2  -6 235388. 11168.2   2
  -1  -1  -6 251022. 11201.1  15
  -1  -1   6 221022. 15378.7   7
   1  -2  -6 285093. 12167.8  16
   1  -2  -7 570.726 593.114  15
  -1  -1  -7-89.9465 285.825   8
  -2   1   7 86.7191 251.559  27
  -2   1  -7-4.59984 46.2231   8
  -1  -1   7 26.8362 127.125  27
  -2   1   7-213.236 375.868  14
  -1  -1   7-166.114 286.274  14
   1  -2  -7-616.789 554.367  26
  -1  -1  -7-445.321 521.970  15
  -1  -1   7 1046.42 864.352   7
  -1   2  -7-414.821 482.946  12
  -1  -1  -7-101.203 262.583  13
   1  -2  -7 179.391 318.671  29
  -1  -1   7 966.921 683.646  24
  -2   1  -7 687.066 655.320   1
   2  -1   7-65.0465 192.749  17
  -2   1   7-110.704 262.206  24
  -1   2  -7 1025.13 891.569   8
   1   1  -7-325.854 449.781  23
  -1   2  -7 1032.79 905.032  28
  -1  -1  -7-663.242 698.662   1
  -1   2   7 165.632 553.569  31
  -1   2  -7-233.284 361.724   9
  -1  -1  -7-572.358 588.548   4
  -1   2   7 380.131 431.137  12
  -1  -1  -7-551.817 642.440  29
   1   1   7 402.855 490.920  22
   2  -1  -7-1629.58 992.905  16
  -2   1  -7-187.020 329.658  13
  -1   2  -7 53.4671 184.287   4
   1   1   7 398.986 594.385  21
  -1  -1  -7 330.555 500.764  26
  -2   1   7-761.291 676.180   3
   1  -2   7 344.709 454.836  20
  -1  -1   7 32.6420 154.628   3
   1  -2  -7 371.452 597.705  20
  -1   2   7-290.425 412.730  22
   1  -2  -7-161.132 334.014  19
   2  -1  -7-45.9123 168.467  19
   1   1  -7 73.3702 653.534  19
  -2   1  -7-375.897 531.544  10
  -1  -1  -7-318.199 490.479  10
  -1   2   7-158.381 270.963   9
   1   1  -7 574.182 699.700   2
   1  -2  -7-206.706 353.639   6
   1   1   7-137.439 321.101  18
  -1  -1  -7-420.410 499.616   6
  -1  -1   7 330.489 472.031  17
  -2   1  -7-1842.61 1769.47  33
   1   1  -7 198.601 399.141  33
  -1   2  -7 321.999 438.302   2
  -1  -1  -7 1369.17 1105.11  32
   1  -2   7-35.2815 158.554  17
   1  -2  -7-16.9185 120.216  16
  -1  -1   7 2023.00 1331.78  30
  -1   2  -8 407449. 14647.7  15
  -2   1   8 528275. 18428.0  27
  -1   2  -8 387821. 21530.0   8
   1  -2  -8 424499. 15023.2  26
  -1  -1   8 419988. 13549.8  14
  -1  -1  -8 415448. 17185.4  13
   1  -2  -8 350873. 18058.1   4
  -1   2  -8 407853. 20234.4  12
  -1  -1  -8 360248. 17023.7  29
  -2   1  -8 537619. 17036.3  13
   1  -2  -8 350409. 16473.3  15
  -1   2  -8 262685. 13175.1   2
  -1  -1   8 492171. 15247.1  24
  -2   1  -8 439067. 13735.5   8
   1   1  -8 387256. 17536.7  23
  -1  -1  -8 260264. 14772.5  26
   1   1  -8 371034. 14874.5  15
  -2   1   8 483601. 17734.6  24
  -1   2   8 357923. 17236.5  22
   1  -2  -8 357934. 16365.8   6
  -1  -1  -8 408588. 17568.7   6
  -1   2   8 361466. 13313.8   9
  -1  -1  -8 361914. 14872.3   4
   1   1   8 510857. 26863.1  21
   2  -1  -8 399592. 13778.7  32
  -2   1  -8 255880. 14353.5  10
   1  -2  -8 327166. 20131.7  19
  -1  -1   8 538705. 18663.1  27
  -1  -1  -8 531832. 20810.1  10
  -1   2  -8 404449. 14327.3   6
   1   1  -8 367812. 14498.5   6
   1  -2  -8 483620. 15960.7  29
  -2   1   8 261103. 12995.7   3
  -1   2  -8 388734. 17353.7   9
  -1  -1  -8 479981. 15865.2  25
  -1  -1   8 271660. 14135.3  17
  -2   1  -8 303677. 24323.8  33
  -1  -1   8 357995. 20403.7   5
   1   1  -8 346482. 21218.8  33
  -1  -1  -8 339106. 18740.7  32
   1  -2  -8 379659. 22168.1  16
  -1  -1  -8 500539. 16738.2   8
   2  -1  -8 660909. 21391.1  16
  -1   2   8 339129. 16844.9  31
  -2   1   8 258260. 14693.0  31
   1   1   8 477826. 20228.7  22
  -1  -1   8 391874. 23031.4  30
  -2   1   8 639137. 20156.2  14
  -1  -1  -8 390175. 17457.2  15
  -1  -1  -9 133.369 320.371  15
   1  -2   9-1235.14 984.316  24
  -1  -1   9 131.949 282.691  27
  -1   2   9 378.882 436.730   9
  -1  -1  -9 341.567 417.773   8
  -2   1   9 4540.30 1677.20  27
  -1   2  -9-417.910 553.815   8
  -2   1   9-1034.97 818.385  31
   1   1  -9 351.698 431.766  32
  -1  -1   9 149.764 274.766  14
  -1  -1  -9 428.287 580.322  26
   1  -2  -9-760.652 753.153  15
  -1  -1   9-176.412 310.958  24
  -1   2  -9 861.716 728.810   9
   1   1  -9-3.00600 466.008   6
   1   1  -9-123.120 252.545  15
   1  -2  -9-705.805 571.532  25
  -1  -1  -9-56.7564 185.041  13
  -2   1  -9 501.341 489.323  13
  -1   2  -9 557.681 559.010  13
  -1  -1   9 3120.30 1726.86   5
   2  -1  -9 998.585 726.080  32
  -2   1   9 1211.68 831.360  24
  -1   2  -9 724.102 600.146  15
   1  -2  -9-30.5491 125.325  29
   1   1  -9 780.762 648.133  23
  -1   2  -9 1043.49 1009.00  12
   1  -2  -9-441.928 487.448  26
  -1  -1  -9-811.293 775.556  29
  -1   2   9 716.934 747.057  22
   1   1   9 206.179 414.372  22
  -2   1  -9-749.565 760.874  10
  -1  -1  -9-675.345 715.353  10
   1   1  -9-236.813 427.407  33
   1  -2  -9-96.6290 264.275   6
  -1  -1  -9-149.495 331.792   6
  -2   1  -9-52.0525 154.244   8
  -1   2   9-567.040 673.872  31
  -2   1  -9-403.426 874.300  33
  -1   2  -9 249.402 369.519   6
  -1  -1  -9 94.5191 308.158  32
  -2   1   9 259.379 386.408  14
   1  -2 -10 73790.8 6439.69  29
  -1  -1  10 85260.6 6280.47  24
  -1  -1 -10 81954.9 6231.21   8
  -2   1  10 97588.6 7214.39  14
  -1  -1 -10 94783.1 8494.91  32
  -1  -1  10 85287.0 6662.43  14
  -1  -1 -10 94969.6 7045.48  13
  -2   1 -10 85101.7 6160.53  13
   1  -2 -10 86403.3 6608.77  25
  -1  -1 -10 95637.2 7848.48  29
   1  -2 -10 94250.1 7132.20  26
   1  -2  10 107921. 8183.48  24
   1   1 -10 88083.6 6380.75  15
   1   1 -10 101454. 8277.74  23
  -2   1  10 90121.4 6986.05  24
  -1  -1 -10 113516. 8597.33  15
  -1   2  10 106518. 7972.89  22
   1   1  10 111979. 8593.10  22
   1  -2 -10 102806. 7920.84   6
  -1  -1 -10 107549. 8241.07   6
   1   1 -10 100456. 7820.36  33
  -1   2 -10 80037.4 5563.41  15
  -1  -1 -10 92194.3 7579.76  26
  -2   1 -10 92105.5 7712.11  10
  -1   2 -10 78818.4 5552.86   6
   1   1 -10 92435.4 6475.63   6
  -1  -1 -10 101906. 8498.47  10
  -1   2 -10 94125.8 6893.32   8
  -1   2 -10 94241.8 7038.21  13
  -1   2 -10 82171.8 6670.81  33
  -1  -1  10 87090.2 6558.81  27
  -1   2  10 93692.8 6490.57   9
   2  -1 -10 80078.2 5912.81  32
   1   1 -10 89792.9 6451.84  32
  -1   2  10 116291. 9286.14  31
  -2   1  10 105860. 7926.63  31
  -1  -1  10 68317.1 8116.87   5
   1  -2 -10 109825. 8255.43  15
  -2   1 -10 85364.4 6026.07   8
   1   1 -11 466.967 443.398   6
  -1  -1 -11-394.557 437.843  15
  -1  -1 -11 450.424 403.230   8
  -1  -1  11 411.856 408.789  14
  -1  -1  11 380.719 419.935   5
  -1  -1  11 617.738 542.356  27
  -2   1  11 872.130 652.317  14
   1  -2 -11 246.369 375.368  26
   2  -1 -11 97.2063 197.346  26
   2  -1 -11-74.5721 171.916  32
  -1   2  11 73.7521 154.936  31
   1  -2 -11 71.1115 155.936  25
  -1  -1 -11 133.037 224.376  13
  -2   1 -11 203.307 252.434  13
  -1   2 -11 149.541 254.006  13
   1  -2 -11-452.277 453.354  15
  -1  -1  11-459.547 415.540  24
   1  -2  11 184.766 283.142  24
   1   1 -11 173.184 256.594  15
  -1   2 -11 1161.90 620.998  23
   1   1 -11 24.8361 117.650  23
   1  -2 -11-105.054 207.034  29
  -1   2  11-218.042 287.702  22
  -2   1  11 472.947 446.099  24
   1   1  11 404.510 417.046  22
  -1   2 -11 85.5548 185.414  15
  -1  -1 -11 27.1508 116.337  29
  -2   1 -11 119.765 240.699  10
  -1  -1 -11-693.310 645.477  10
  -1  -1 -11-448.922 442.355   6
   1  -2 -11 215.674 299.112   6
  -1  -1 -11-142.492 261.424  26
  -2   1  11 1684.40 4523.73   5
  -2   1 -11 49.5991 133.207   8
  -1   2 -11 17.2575 86.7090   6
  -1   2 -11 649.085 529.921  33
  -1  -1 -11-83.1132 227.310  32
  -1   2  11 606.109 485.318   9
   1   1 -11-187.003 261.856  32
  -2   1  11-14.2748 82.8180  31
   1   1 -11-171.898 300.698  33
  -2   1  12 4272.52 2563.50   5
  -1  -1 -12 4645.06 1299.86  29
   1  -2 -12 4762.53 1297.73  15
  -1  -1 -12 4331.70 1288.36  15
   2  -1 -12 4627.86 1290.27  29
  -1   2 -12 3923.33 1047.34  15
   1   1 -12 5776.67 1393.68  15
  -1  -1  12 7417.65 2212.34   5
  -2   1 -12 4856.69 1331.78   8
  -1  -1  12 3723.98 1127.80  27
  -2   1  12 4950.90 1307.42  31
   1   1 -12 6343.85 1674.69  33
  -1  -1  12 2998.47 901.751  14
  -1  -1 -12 3958.18 1163.83  26
   2  -1 -12 3532.99 1066.57  26
  -2   1 -12 4138.89 1135.12  13
  -2   1  12 4779.34 1342.83  24
  -1   2 -12 6077.54 1552.24  13
  -1  -1  12 4746.69 1208.05  24
   1  -2  12 5548.23 1470.25  24
  -1   2 -12 2983.52 977.872  23
   1  -2 -12 4921.16 1335.08  29
   1   1 -12 5269.95 1462.52  23
  -1  -1 -12 3493.72 995.516  13
  -1   2  12 4661.33 1290.48  31
   1  -2 -12 5140.81 1411.75  26
  -1   2  12 4052.71 1130.44  22
   1   1  12 4495.94 1238.04  22
  -1  -1 -12 4559.94 1200.04   8
   2  -1 -12 4808.30 1210.03  32
   1   1 -12 5047.76 1276.31   6
  -2   1 -12 4818.58 1388.86  10
  -1  -1 -12 3550.92 1309.95  10
   1  -2 -12 1948.97 742.085   6
  -1  -1 -12 3420.99 1060.14   6
  -1   2 -12 3551.97 1097.08  33
  -1   2 -12 3908.35 1062.63   6
  -1  -1 -12 4653.62 1578.60  32
  -1   2  12 4723.95 1165.99   9
   1   1 -12 3549.99 969.113  32
   1  -2  12 6109.39 1617.27  31
   1  -2 -12 3169.61 976.682  25
  -2   1  13-1431.13 1618.02   5
  -1  -1 -13 17.9160 70.6157  15
   2  -1 -13 591.813 411.365  29
  -1  -1  13 767.415 545.295   5
  -2   1 -13 30.9848 76.6520   8
   1  -2  13 872.632 695.423   5
  -1  -1  13-178.298 194.336  14
   1  -2 -13-76.6917 143.109  26
   2  -1 -13 132.070 175.019  26
   1  -2 -13 498.026 310.670  25
  -1  -1 -13-182.001 184.747  13
  -2   1 -13 127.628 174.527  13
  -1   2 -13 934.900 446.606  13
  -2   1  13 256.112 290.477  24
  -1  -1  13-111.648 199.900  24
   1   1 -13 377.332 332.559  23
  -1   2  13 109.979 133.046  22
   1   1  13 60.2296 116.478  22
  -2   1  13 30.2066 73.6196  31
  -1   2  13-80.6998 138.064  31
   1  -2 -13 187.564 216.916  15
   1  -2 -13 105.726 173.493  29
  -1  -1 -13 78.2468 136.875  29
  -1  -1 -13-168.891 237.650  10
   1  -2 -13 103.339 136.354   6
  -1  -1 -13 355.534 261.612   6
  -1   2 -13-191.849 192.786   6
  -1   2 -13 996.919 471.986  33
   1   1 -13 227.624 225.929   6
   1   1 -13-53.7466 139.451  33
  -1   2 -13 259.114 237.199  15
  -1  -1 -13 392.581 370.294  32
   1   1 -13-96.8028 132.375  32
   2  -1 -13 60.4477 122.719  32
   1  -2  13 186.072 236.514  31
   1   1 -13 1050.78 504.245  15
  -1  -1 -13 91.1193 141.287  26
   1  -2 -14 121537. 4793.48  29
   2  -1 -14 117926. 4080.94  29
  -2   1 -14 121377. 4215.46  13
   1  -2 -14 135132. 4896.66  26
   2  -1 -14 128255. 4500.52  26
   1  -2  14 130338. 4625.19  31
  -1  -1  14 127863. 4538.53  24
   1   1 -14 125407. 4790.31  23
  -2   1  14 113749. 3872.25  12
  -1  -1 -14 123943. 5055.42  10
   1  -2 -14 123242. 5060.46  10
   1   1 -14 122719. 4959.58  33
   2  -1 -14 132040. 4605.18  32
  -2   1  14 121058. 4376.57  24
   1   1  14 120978. 4048.59  28
   0   2   0 215682. 8247.73   2
   2   0   0 231058. 10164.8  21
   0   2   0 200499. 10287.7  21
   0  -2   0 202664. 8790.76  20
  -2   2   0 211388. 8560.41   2
  -2   0   0 210165. 8544.03   3
   2  -2   0 187053. 7942.35  16
  -2   2  -1 31342.6 3324.73   2
   0   2  -1 28170.6 2940.10   2
   0   2   1 29685.0 2961.90   2
   2   0  -1 38284.6 4708.77  21
   2   0   1 29686.7 3427.65  21
  -2   0  -1 31096.1 3309.66   3
   0   2  -1 26980.9 3848.78  21
   0   2   1 33528.4 4484.31  21
   2  -2   1 28546.6 2839.67  20
   0  -2   1 30610.3 3331.09  20
   0  -2  -1 28353.1 3324.86  20
   2  -2  -1 29980.8 3504.26  19
  -2   2   1 30836.6 3437.48   2
  -2   0   1 28249.3 3240.96   3
   0  -2   1 30230.6 3292.81  17
   2  -2   1 27233.3 3115.02  16
   0  -2  -1 30379.3 3015.45  16
   2  -2  -1 28140.0 3125.96  16
   0  -2  -2 41029.6 4071.71   1
  -2   0  -2 56226.6 4566.74   3
   0   2  -2 48771.4 4097.71   2
   2   0  -2 60076.3 5551.43  21
  -2   2  -2 55093.4 4505.32   2
   2   0   2 51408.7 4587.36  21
   0   2   2 61704.6 6474.95  21
   2  -2   2 50360.7 4011.06  20
  -2   0  -2 41542.4 6048.74   1
   0  -2   2 62764.1 5377.34  20
   0  -2  -2 49555.3 4276.65  20
   2  -2  -2 54913.7 4908.51  19
  -2   2   2 45777.3 4302.74   2
  -2   0   2 54929.6 4710.32   3
   0  -2   2 53839.2 4603.31  17
   2  -2  -2 45468.4 3846.42  16
  -2   2   2 58265.1 4883.33   3
  -2   0  -3 500593. 13680.5   3
   0   2  -3 478271. 13663.8   2
  -2   2  -3 472797. 13722.5   2
   2   0  -3 494626. 16806.0  21
   2   0   3 474487. 14792.4  21
   0   2   3 451550. 18744.9  21
   2  -2   3 476017. 13217.8  20
   0  -2   3 462791. 17374.8  20
   0  -2  -3 466094. 14390.4  20
   2  -2  -3 458918. 15288.7  19
  -2   0  -3 401566. 21581.4   1
   2  -2  -3 453875. 13637.7  16
  -2   2   3 462623. 14706.4   2
  -2   0   3 448678. 14591.8   3
   0  -2  -3 431808. 13413.4   1
   0  -2   3 446592. 14511.5  17
   0  -2  -4 1852.46 865.584  15
   0   2  -4 925.237 617.782  28
   0   2   4 1087.40 701.698  28
  -2   0   4 2506.70 1427.21  27
   0  -2   4 663.060 542.227  27
  -2   2  -4-1096.76 1185.00   8
  -2   0   4 935.193 837.206  14
   0  -2   4 619.960 557.218  17
   0  -2  -4 613.183 495.727  26
   0  -2  -4 1049.30 899.215  25
  -2   0   4 1428.95 1083.92   7
  -2   2  -4 83.3384 246.952  13
   0   2  -4 1337.78 683.797  23
   0   2  -4 1619.50 860.112  12
  -2   2   4 1301.07 825.240  12
   0   2  -4 963.954 659.856  22
   0   2   4 1521.37 762.973  22
  -2   2   4-592.613 1125.40  11
   2   0  -4 2160.56 1205.24  21
   2   0   4 1549.89 800.539  21
   0   2   4 1455.14 1150.63  21
  -2   0  -4 1268.10 1086.72   1
  -2   0  -4 560.202 633.355  11
   2  -2   4 703.907 498.303  20
   0  -2   4 1882.58 966.654  20
   0  -2  -4 1520.48 894.908  20
   2  -2  -4 1028.28 719.935  19
  -2   0  -4 1890.33 1054.50  10
   0  -2  -4 1360.06 687.662   6
   0   2   4 816.636 475.775  18
   2   0   4 670.116 469.743  18
  -2   0  -4 274.674 388.408  29
   0   2  -4 1334.25 790.739   2
   0   2  -4 1400.21 688.624   9
   0  -2  -4 1068.02 654.976   1
   2  -2  -4 1446.68 794.720  16
  -2   0  -4 1436.66 1155.86   8
   0  -2  -4 711.146 863.792  30
  -2   2   4 2624.09 1101.58  31
  -2   0   4 1190.20 1190.08  30
  -2   2  -4 1318.23 600.203   2
  -2   0   4 1864.61 997.277   3
   0  -2  -5 333718. 13116.5  29
  -2   0   5 218853. 16332.1  27
   0  -2   5 316621. 13455.4  27
  -2   0  -5 316546. 13218.1  26
   0  -2  -5 362385. 14224.6  26
   0   2  -5 329006. 12297.6  28
  -2   0   5 320258. 16107.3   7
  -2   2  -5 240480. 18009.9   8
  -2   0  -5 328768. 13865.9  13
  -2   0   5 279704. 14741.0  14
  -2   0   5 289565. 18848.0  30
   0  -2  -5 283397. 15945.2  25
   0   2  -5 326470. 12949.6   2
   0  -2   5 337608. 12706.9   7
   0  -2  -5 313142. 11879.8   1
  -2   2  -5 341397. 15446.1  13
   0  -2  -5 304833. 15146.9  30
   0   2  -5 296055. 14381.8  12
   0   2  -5 261519. 10504.0  23
   0   2  -5 342250. 12993.2  22
  -2   2   5 309773. 13008.9  12
   0  -2  -5 345158. 11749.5   6
   0   2   5 322303. 12948.5  28
   0   2   5 315084. 12047.9  22
   0  -2  -5 342672. 14336.4  13
   2   0  -5 425833. 18717.7  21
  -2   0  -5 274764. 15218.9  11
   0   2   5 233189. 17346.3  21
   2  -2   5 309484. 11737.2  20
   0  -2   5 300253. 13501.7  20
   0  -2  -5 308574. 13129.3  20
  -2   0  -5 333601. 14682.2  10
   2  -2  -5 379056. 15390.2  19
   2   0  -5 330420. 17767.0  19
  -2   0  -5 300148. 13536.2  29
   2   0   5 336652. 12626.0  18
  -2   0   5 323482. 14143.8   3
   0   2  -5 319547. 12878.2   9
  -2   2   5 320941. 13663.7  24
  -2   0  -5 338760. 15281.6   1
   0  -2   5 337599. 13478.9  17
   2  -2  -5 289718. 13225.3  16
  -2   2   5 348601. 13032.3  31
   0  -2  -5 346116. 13349.7  15
  -2   0  -5 184480. 14100.8   8
  -2   2  -6 53938.4 6854.58   8
   0   2  -6 69560.5 6741.29  28
   0   2   6 64019.8 6295.45  28
  -2   0   6 72663.4 7403.40  27
  -2   0   6 57940.2 6173.52  14
   0  -2   6 50494.4 5890.95  27
  -2   0  -6 50257.6 5378.65  26
   0  -2  -6 68266.1 6605.45  26
   0  -2  -6 55769.4 6315.22  29
  -2   0   6 58017.7 6463.15   7
   0  -2  -6 46182.6 5383.59  13
  -2   0  -6 39296.6 5073.65  13
   0  -2  -6 44503.6 6502.09  25
  -2   2   6 55412.9 6230.82  24
  -2   2  -6 58517.0 6098.65  13
  -2   0   6 25508.6 4567.97  24
   0   2  -6 42015.7 6040.85  12
   0   2  -6 56428.9 5811.49   2
   0   2  -6 50562.3 5144.93  23
   0  -2  -6 61886.6 5611.25   1
   0   2  -6 66933.8 6392.33  22
  -2   2   6 46649.5 5385.53  12
   0  -2  -6 64293.6 5827.29   6
   0   2   6 58374.3 5538.27  22
   2   0  -6 42919.6 6179.60  21
  -2   0  -6 61873.3 6782.86  11
   0   2   6 48504.3 9159.65  21
   2  -2   6 52086.9 5272.20  20
   0  -2  -6 74970.7 8540.11  20
  -2   0  -6 66195.9 7551.95  10
   2  -2  -6 56791.1 7043.87  19
  -2   0   6 59502.8 6598.66   3
   2   0   6 54947.0 5900.52  18
   0   2  -6 52548.5 5656.96   9
   0  -2   6 53291.3 5739.21  17
  -2   0  -6 63193.0 7216.10  32
   2  -2  -6 66337.5 7111.77  16
  -2   0  -6 59925.2 6348.36   1
  -2   2   6 64847.2 6118.72  31
   0  -2  -6 77392.9 7569.05  15
  -2   0  -6 88692.2 10054.3   8
   0  -2  -6 26710.3 4563.59  30
  -2   0  -6 50331.7 5867.22  29
  -2   0  -7 3230.79 1503.14  29
   0  -2  -7 3845.29 1706.03  29
   0  -2  -7 13538.6 3381.27  15
  -2   2  -7 12117.1 2912.09   8
  -2   0   7 832.046 971.959   5
   0   2  -7 12783.8 3198.25  28
   0   2   7 8708.57 2384.56  28
  -2   0  -7 15995.4 4146.70   8
  -2   0   7 11926.0 2613.86  27
   0  -2   7 8748.36 2595.17  27
  -2   0  -7 5241.81 1779.69  26
   0  -2  -7 9017.42 2811.88  26
   0  -2  -7 15336.7 3707.47  25
  -2   2  -7 11695.4 2534.60  13
  -2   0   7 11909.5 2729.75   7
   0  -2  -7 4276.72 1658.78  13
  -2   0   7 26787.2 4763.97  24
  -2   0  -7 8489.55 2378.46  13
  -2   2   7 7028.95 2493.59  24
   0  -2   7 7086.41 2300.64  24
   0   2  -7 6646.73 2042.37  23
   0   2  -7 7648.48 2658.20  12
   0   2   7 13822.8 2975.32  22
  -2   2   7 5464.77 1831.50  12
  -2   0  -7 10765.4 3273.02  10
   0  -2  -7 11749.7 2828.09   6
   0   2  -7 13692.8 2617.45  33
   0   2  -7 6605.92 2188.39   9
   2   0  -7 13457.2 3263.13  33
  -2   0  -7 11414.8 3232.22  32
  -2   2   7 11808.0 3068.58  31
  -2   0   7 11564.3 2541.99  14
   0  -2  -7 13114.5 3134.65  30
   0  -2  -8 110947. 9428.47  29
  -2   2  -8 120041. 8085.82   8
   0   2  -8 105797. 10434.6  28
   0   2   8 91506.7 7665.28  28
  -2   0   8 124509. 8224.81  27
  -2   0   8 107974. 7410.02  14
   0  -2   8 93522.3 9262.88  27
   0  -2  -8 97147.6 9251.45  15
   2  -2  -8 128059. 7666.63  26
  -2   0   8 124359. 8191.09   7
   0  -2  -8 108813. 7954.70  13
  -2   0  -8 134366. 9155.18  13
   0  -2  -8 148343. 9981.95  25
  -2   2  -8 117242. 7868.53  13
  -2   2   8 116082. 9786.45  24
  -2   0   8 134729. 8787.07  24
   0  -2   8 115135. 8318.59  24
   0   2  -8 108564. 8549.48  23
   0  -2  -8 77339.1 7862.02  26
  -2   2   8 127775. 8560.27  12
   0   2   8 92309.5 8076.62  22
   0  -2  -8 83551.0 7997.13   6
  -2   2   8 78198.7 7787.15  31
  -2   0  -8 77776.3 8879.36  10
   0  -2  -8 114907. 7761.95  10
   0   2  -8 95819.0 9016.13   9
   0   2  -8 121799. 7401.79  33
   2   0  -8 112714. 11326.0  33
  -2   0  -8 79414.2 9275.24  32
   2  -2  -8 124847. 7881.55  29
  -2   0   8 60484.2 8772.30   5
  -2   0  -8 143673. 9100.90   8
   0  -2  -8 169834. 10891.0  30
  -2   0  -8 103185. 8508.18  29
   0  -2  -9 32007.0 4826.98  29
   0   2  -9 32387.2 4975.11  15
   2  -2  -9 32818.4 3982.89  29
  -2   2  -9 30137.0 3806.84   8
   0   2  -9 33208.5 5596.41  28
   0   2   9 36569.3 4551.97  28
  -2   0   9 15357.0 4368.56   5
  -2   0   9 35096.4 4577.94  27
  -2   0   9 30488.4 3911.07  14
   0  -2   9 28531.0 4416.30  27
   0  -2   9 27549.6 3572.92  14
   0  -2  -9 33750.3 5044.55  26
  -2   0   9 26701.7 3585.00   7
   2  -2  -9 30674.7 3645.31  26
   0  -2  -9 26497.0 3637.33  13
  -2   0  -9 31291.1 4195.15  13
   0  -2  -9 30917.6 3973.40  25
  -2   2  -9 33271.0 4252.90  13
  -2   2   9 34741.0 4770.42  24
  -2   0   9 31418.1 3980.24  24
   0  -2   9 31825.6 4061.33  24
   0   2  -9 31573.6 4207.49  23
  -2   2   9 35845.8 4272.87  12
   0   2   9 26347.9 4250.38  22
   0  -2  -9 28607.2 4564.71   6
  -2   0  -9 36200.8 5853.06  10
   0  -2  -9 29424.1 3967.66  10
   0   2  -9 27653.2 4540.40   6
   0   2  -9 30484.6 3773.87  33
   2   0  -9 35761.4 4941.36  33
  -2   0  -9 28265.7 5507.45  32
  -2   2   9 27219.9 4424.90  31
   0  -2  -9 29629.5 4970.36  15
  -2   0  -9 29334.6 3790.57   8
   0  -2  -9 30006.6 3544.93  30
  -2   0  -9 27831.3 3999.41  29
   0   2 -10 23397.0 3923.61  15
  -2   2 -10 17932.2 2607.31   8
   2  -2 -10 22723.1 3195.35  29
   0   2  10 21508.4 2964.35  28
  -2   0  10 21536.5 3330.32  27
  -2   0  10 22448.6 3151.31  14
   0  -2  10 21380.9 3486.03  27
   0  -2  10 17997.7 2748.93  14
   0  -2 -10 25056.5 3851.31  26
   2  -2 -10 18657.7 2681.68  26
   0  -2 -10 19700.0 3226.33  29
  -2   0 -10 21095.2 3170.09  13
   0  -2 -10 21478.1 3170.05  25
  -2   2 -10 21575.3 3144.80  13
  -2   2  10 21420.6 3235.35  24
  -2   0  10 20023.1 2936.07  24
   0  -2  10 20663.5 3020.03  24
   0   2 -10 20250.7 3207.49  23
  -2   2  10 21784.8 3192.61  12
   0  -2 -10 26019.5 4027.20   6
   0   2  10 24497.0 3801.64  22
  -2   0 -10 21565.8 3876.81  10
   0   2 -10 29964.6 4641.21   6
   0  -2 -10 18531.4 3250.96  10
   0   2 -10 18026.0 2817.60  33
   2   0 -10 20109.0 2978.10  33
  -2   0 -10 20245.6 4087.03  32
   2   0 -10 27657.8 4318.54  32
  -2   2  10 23579.0 3826.60  31
  -2   0  10 29269.0 6121.43   5
   0  -2  10 21432.5 2880.57  31
  -2   0 -10 19109.9 2889.81   8
   0  -2 -10 28081.9 4468.85  15
   0  -2 -10 18831.2 2566.99  30
   0  -2 -11 248763. 10732.2  29
  -2   0 -11 254455. 9838.01  13
   2  -2 -11 247933. 9588.85  29
   0   2  11 246093. 8452.83  28
  -2   0  11 255087. 10380.7  27
  -2   0  11 260843. 10034.4  14
   0  -2  11 245420. 9687.41  14
   0  -2 -11 270055. 11430.0  26
   2  -2 -11 249152. 9522.94  26
   0  -2 -11 264779. 10146.0  25
  -2   2 -11 249396. 9351.36  13
  -2   0  11 255966. 9872.02  24
   0  -2  11 237245. 9209.33  24
   0   2 -11 261392. 10134.3  23
  -2   2  11 247406. 9093.20  12
   0  -2 -11 260204. 10397.3   6
   0   2  11 272447. 10492.6  22
  -2   0 -11 303182. 13476.1  10
   0   2 -11 293963. 10854.7   6
   0  -2 -11 254165. 10633.8  10
   0   2 -11 252105. 10218.1  33
   2   0 -11 249065. 9603.92  33
   2   0 -11 278143. 11041.5  32
  -2   2  11 258246. 10101.2  31
  -2   0  11 292341. 15854.5   5
   0  -2  11 246788. 8874.91  31
   2  -2  11 244432. 8725.64  31
  -2   0 -11 265177. 10110.2   8
   0  -2 -11 211298. 11054.6  15
  -2   2 -11 228983. 8903.99   8
   0   2 -11 284894. 10843.6  15
  -2   2  12 263.720 1079.13   5
   0  -2 -12 1196.87 588.269  15
   0  -2 -12 883.336 493.062  29
   2  -2 -12 429.387 322.057  29
   2   0 -12 1015.97 461.212  29
   0   2 -12 869.595 571.044  15
  -2   0 -12 1367.66 572.107   8
  -2   2 -12 858.194 452.635   8
   0  -2  12 1438.82 665.858   5
  -2   0  12 735.610 467.513  27
  -2   0  12 1124.76 548.256  14
   0  -2  12 408.283 313.289  14
   0  -2 -12 834.925 491.832  26
   2  -2 -12 571.034 352.497  26
   2   0 -12 1655.00 708.496  26
   0  -2 -12 975.157 416.141  25
   2  -2 -12 1250.41 517.961  25
  -2   0 -12 927.393 557.635  13
  -2   2 -12 1337.65 569.549  13
  -2   0  12 1001.88 504.967  24
   0  -2  12 1333.71 624.543  24
   0   2 -12 775.988 456.722  23
  -2   2  12 1161.55 479.727  12
   0   2  12 2379.98 798.980  22
  -2   0 -12 850.063 551.969  10
   0  -2 -12 1200.78 591.962  10
   0  -2 -12 910.912 469.262   6
   0   2 -12 558.055 364.651  33
   2   0 -12 1095.66 545.751  33
   0   2 -12 1289.66 693.214   6
   2   0 -12 1534.26 713.439  32
  -2   2  12 819.383 482.641   9
  -2   2  12 1439.28 620.956  31
   0  -2  12 749.783 383.494  31
   2  -2  12 1257.10 495.864  31
   2  -2 -13 106176. 4282.63  29
   0  -2 -13 97451.0 4178.30  26
   2  -2 -13 91602.8 4243.72  26
   2   0 -13 101515. 4190.03  26
  -2   0 -13 100692. 3931.91  13
  -2   2 -13 100539. 3806.64  13
   2  -2 -13 93702.7 3571.95  25
   0  -2 -13 96395.5 4382.95  29
  -2   0  13 100528. 4011.19  24
   0  -2  13 106118. 4217.58  24
   0   2 -13 104856. 4233.60  23
   0  -2 -13 100905. 3933.65   6
   0   2  13 96836.3 3984.48  22
   0   2 -13 117801. 4695.14   6
  -2   0 -13 99032.5 4578.41  10
   0  -2 -13 88852.7 4348.40  10
   0   2 -13 95431.8 3936.88  33
   0  -2  13 115272. 5066.28   5
  -2   2  13 99403.9 4047.81   9
   2   0 -13 106619. 4329.77  32
  -2   2  13 128726. 5086.70  31
  -2   0  13 128541. 10041.7   5
   0  -2  13 87365.8 4528.83  31
  -2   0 -13 99483.9 3896.01   8
   0  -2 -13 99837.9 4201.27  15
   0   2 -13 122262. 4934.24  15
  -1   3   0 138235. 8142.32  28
   1   2   0 126986. 7108.77  28
  -2  -1   0 141290. 10006.3  25
  -1  -2   0 134312. 8532.02  25
  -1  -2   0 133052. 13309.1   7
  -1   3   0 139101. 8481.06  12
  -2   3   0 121382. 7170.27  12
   1  -3   0 126726. 7201.80  30
  -1   3   0 132479. 7188.45  22
   1   2   0 122213. 7051.57  22
  -3   2   0 121252. 12424.1  11
  -3   1   0 142643. 10663.3  11
  -2  -1   0 164613. 10799.4  11
  -1   3   0 140492. 7770.24   9
  -2   3   0 122984. 7067.67   9
  -2  -1   0 156025. 12014.8  30
  -1  -2   0 140939. 9014.79  30
  -2  -1  -1 21335.2 4708.22  30
  -1   3  -1 19613.5 3047.03  28
  -1   3   1 19319.6 2905.88  28
   1   2  -1 17202.1 2594.50  28
   1   2   1 19248.7 2804.29  28
  -2  -1  -1 21832.2 3977.68  25
  -1  -2   1 13268.7 4585.50  27
  -2  -1   1 24308.5 4032.03  25
  -1  -2   1 19472.3 3306.97  25
  -1  -2  -1 18790.4 3222.92  25
  -1  -2   1 33567.4 6227.74   7
  -2  -1  -1 17216.8 5276.40   7
  -2  -1   1 20411.9 6315.00   7
  -1  -2  -1 10077.5 3745.51   7
  -1   3  -1 23471.3 3526.64  12
  -1   3   1 18244.0 3114.75  12
  -1  -2  -1 17614.1 3303.75   6
  -2   3  -1 18594.8 2813.68  12
  -2   3   1 19818.8 2971.28  12
  -1   3  -1 17952.8 2656.84  22
   1   2  -1 18459.0 2691.92  22
  -1   3   1 19590.7 2738.63  22
   1   2   1 19464.4 2851.61  22
  -3   2   1 25666.7 5325.58  11
  -3   1   1 23254.8 3850.42  11
  -3   1  -1 23391.2 4805.72  11
  -2  -1   1 21058.1 3422.30  11
  -2  -1  -1 23578.1 4172.36  11
  -3   2  -1 9594.04 3520.36  11
  -1   3  -1 19581.8 2827.71   9
  -2   3  -1 19122.5 2753.34   9
  -1   3   1 20009.5 3067.62   9
  -2   3   1 22712.3 3220.20   9
  -1  -2  -1 22711.5 3632.17  15
  -2  -1   1 23435.1 4494.41  30
  -1  -2   1 21504.6 3535.82  30
  -1  -2  -1 19913.7 3460.07  30
   1  -3   1 16918.7 2420.99  30
   1  -3  -1 17953.9 2866.27  30
  -1   3  -2 38212.2 4385.51  28
  -1   3   2 37185.2 4138.22  28
   1   2  -2 28685.3 3260.14  28
   1   2   2 34146.3 3815.69  28
  -3   1   2 33045.1 4347.18  14
  -1  -2   2 16973.2 4969.45  27
  -1  -2   2 20333.9 4505.81  14
  -2  -1   2 38898.6 5083.12  25
  -1  -2   2 30934.5 3805.05  25
  -2  -1   2 33009.1 6895.53   7
  -2  -1  -2 40056.7 5621.44  25
  -1  -2  -2 34682.7 4458.04  25
  -1  -2   2 38849.8 6367.44   7
  -1  -2  -2 42540.1 7735.29   7
  -2  -1  -2 28172.6 5973.77   7
  -1   3  -2 36582.5 4552.70  12
  -2   3  -2 33363.2 3792.40  12
  -1   3   2 41517.9 4736.69  12
   1  -3  -2 32532.8 4432.32   6
  -1  -2  -2 25413.7 3629.67   6
  -2   3   2 36951.4 4167.46  12
   2   1  -2 34504.5 3784.29  23
   1   2  -2 35825.1 3932.93  23
  -1   3  -2 31664.3 3599.24  22
   1   2  -2 31961.7 3609.37  22
  -1   3   2 38865.3 4118.29  22
   1   2   2 35839.0 3879.64  22
  -3   2   2 40166.5 6663.16  11
  -3   2  -2 46637.2 7485.51  11
  -3   1   2 38368.5 4864.21  11
  -3   1  -2 26503.3 5209.94  11
  -2  -1   2 34776.9 4146.36  11
  -2  -1  -2 40081.6 5849.46  11
  -3   1  -2 36624.7 4979.20  10
  -1   3  -2 36104.9 3812.18   9
  -2   3  -2 33161.5 3487.32   9
  -1   3   2 39138.1 4392.52   9
  -2   3   2 44262.7 4803.80   9
   1  -3  -2 28352.8 4324.07  15
  -1  -2  -2 37518.0 4520.74  15
  -2  -1   2 37611.3 5453.12  30
  -1  -2   2 35423.7 4551.45  30
  -1  -2  -2 38402.0 4893.12  30
   1  -3  -2 32749.6 4028.02  30
  -2  -1  -2 20544.9 4623.82  30
  -1  -2  -2 29381.4 3622.88  29
  -1   3  -3 265955. 12767.2  28
   1   2  -3 279211. 10628.6  28
   1   2   3 298849. 11591.1  28
   2   1   3 305933. 11000.6  28
  -2   3  -3 345599. 16931.0   8
  -3   1   3 404298. 18341.7  14
  -2  -1   3 243387. 16460.8  27
  -1  -2   3 240704. 17985.5  27
  -2  -1   3 289160. 14502.2  14
  -1  -2   3 331119. 18196.6  14
  -2  -1  -3 282011. 10931.4  13
  -2  -1   3 290898. 14116.4  25
  -2  -1   3 274206. 18418.8   7
  -1  -2   3 299840. 12446.3  25
  -2  -1  -3 302448. 15794.0  25
  -1  -2  -3 312956. 14701.2  25
  -1  -2   3 302468. 17463.7   7
   1  -3  -3 302524. 12340.0  25
  -1  -2  -3 331820. 19028.5   7
  -1   3  -3 365125. 15201.1  12
  -2   3  -3 300675. 11297.9  12
  -1   3   3 292684. 13135.5  12
   2   1  -3 298243. 11294.4  23
   1   2  -3 302206. 11685.9  23
   1  -3  -3 303354. 13775.0   6
  -2   3   3 301451. 12655.9  12
  -1  -2  -3 310561. 13910.4   6
  -3   2   3 297269. 11008.7  12
  -1   3  -3 281432. 11477.7  22
   1   2  -3 281786. 11148.7  22
  -1   3   3 306634. 10943.4  22
   1   2   3 283249. 10906.8  22
  -3   2   3 301915. 18338.1  11
  -3   2  -3 353284. 18425.4  11
  -3   1   3 296364. 13440.5  11
  -3   1  -3 256569. 16143.6  11
  -2  -1   3 298108. 11621.7  11
  -3   1  -3 307039. 14435.3  10
  -1   3  -3 250754. 10572.4   9
  -2   3  -3 297062. 10276.6   9
  -1   3   3 316868. 11955.4   9
  -2   3   3 352505. 13711.0   9
  -2  -1  -3 338760. 13267.8   8
   1  -3  -3 304515. 13997.3  15
  -1  -2  -3 335216. 14448.7  15
  -2  -1   3 305201. 16454.2  30
  -1  -2   3 296678. 13338.2  30
  -1  -2  -3 295658. 14954.3  30
   1  -3  -3 301446. 12395.6  30
  -2  -1  -3 300370. 14199.8  29
  -1  -2  -3 302640. 13066.5  29
   1  -3  -4 855.094 738.177  15
  -1  -2  -4 1253.30 828.637  15
  -1  -2  -4 1296.70 844.631  29
  -2  -1  -4-455.965 496.979   8
  -1   3  -4 1029.45 783.109  28
   1   2  -4 1267.29 672.588  28
   1   2   4 1695.08 933.399  28
   2   1   4 1376.83 799.047  28
  -3   2  -4 2400.77 1203.24   8
  -2  -1   4 721.458 800.608  27
  -1  -2   4 1116.15 1066.98  27
   1  -3   4 1149.26 679.337  27
  -3   1   4 514.294 667.194  14
  -2   3  -4 1386.16 1131.68   8
  -2  -1   4 707.614 733.413  14
  -1  -2  -4 777.082 633.376  26
  -1  -2   4 1187.23 1047.42  14
  -2  -1  -4 643.509 781.314  25
  -1  -2  -4 367.430 583.795  25
   1  -3  -4 894.113 679.188  25
   2  -3  -4 1874.04 1123.42  25
  -2  -1  -4 290.464 355.268  13
  -2  -1   4 913.757 947.072   7
  -1  -2   4 1006.38 964.232   7
   2   1  -4 834.865 534.890  23
   1   2  -4 424.725 407.866  23
  -1   3  -4 625.489 493.071  12
  -2   3  -4 1110.28 725.492  12
  -1   3   4 1287.14 843.739  12
  -2   3   4 1122.41 801.559  12
  -3   2   4 1292.73 751.886  12
  -1   3  -4 765.821 571.222  22
   1   2  -4 1463.97 826.265  22
  -1   3   4 1956.31 893.114  22
   1   2   4 976.007 635.742  22
  -3   2   4 362.606 620.358  11
  -3   1   4 984.605 733.402  11
  -3   1  -4-264.972 482.132  11
  -3   1  -4 1643.44 1043.44  10
   1  -3  -4 1510.28 949.465   6
  -1  -2  -4 880.928 721.586   6
   1   2  -4 1854.27 1229.98   9
   1   2  -4 561.725 528.673  33
  -1   3  -4 1367.31 697.089   9
  -2   3  -4-180.508 249.157   9
  -1   3   4 1333.31 784.072   9
  -2   3   4 2134.99 1104.95   9
  -2  -1   4 576.151 744.346  30
  -1  -2   4 1102.52 795.431  30
  -1  -2  -4-191.238 380.558  30
   1  -3  -4 1170.42 836.319  30
  -2  -1  -4 624.421 640.410  29
  -3   2  -5 244841. 11686.2   8
  -1   3  -5 213232. 12356.5  28
   1   2  -5 239461. 10625.8  28
  -2   3  -5 270167. 17723.0   8
   1   2   5 254304. 11969.6  28
   2   1   5 234843. 10177.8  28
  -3   1   5 162947. 13451.5  14
  -2  -1   5 277057. 14192.3  27
  -1  -2   5 239286. 14004.5  27
  -2  -1   5 236733. 13288.9  14
   1  -3   5 203755. 9876.86  27
  -1  -2   5 263850. 13400.4  14
  -1  -2  -5 214450. 11196.6  26
  -2  -1  -5 210393. 10146.8  13
  -2  -1   5 234295. 13881.8   7
  -2  -1  -5 189594. 13269.0  25
  -1  -2  -5 156759. 12516.1  25
  -1  -2   5 189046. 14003.0   7
   1  -3  -5 154849. 10031.1  25
  -1   3  -5 197090. 9797.67  12
  -2   3  -5 186077. 10236.2  12
   2   1  -5 207491. 9234.05  23
   1   2  -5 214672. 9720.13  23
  -2   3   5 293061. 15441.6  12
   1  -3  -5 214166. 10910.6   6
  -3   2   5 219126. 10285.4  12
  -1  -2  -5 203296. 10622.2   6
   1   2  -5 207954. 9838.89  22
  -1   3   5 221853. 9446.99  22
   1   2   5 245911. 10620.3  22
  -3   2   5 165438. 15152.1  11
  -3   1   5 207214. 10452.4  11
  -3   1  -5 254862. 12162.2  11
  -2  -1  -5 219398. 13924.2  11
  -3   1  -5 218456. 12352.0  10
  -1   3  -5 278261. 12883.0   9
  -2   3  -5 247292. 10732.4   9
  -1   3   5 241006. 11865.1   9
  -2   3   5 351091. 16087.1   9
   1   2  -5 206363. 12283.7  33
  -2  -1  -5 219394. 11978.5   8
   1  -3  -5 233713. 11627.6  15
  -1  -2  -5 270622. 12216.2  15
  -2  -1   5 219762. 16195.2  30
  -1  -2   5 200710. 10533.3  30
  -3   1  -5 122349. 10796.8   8
  -1  -2  -5 194212. 11879.6  30
   1  -3  -5 195565. 11202.9  30
  -2  -1  -5 226288. 12646.4  29
  -1  -2  -5 252190. 12373.0  29
  -1  -2  -6 37544.2 4828.77  29
  -1   3  -6 28078.5 4653.21  28
   1   2  -6 38385.3 4231.97  28
  -2   3  -6 32684.6 6086.54   8
  -1   3  -6 42897.7 4885.90   8
   1   2   6 29729.8 4121.03  28
   2   1   6 40031.8 4396.75  28
  -3   1   6 45279.5 6890.96  14
  -2  -1   6 50726.3 6065.44  27
  -1  -2   6 42851.8 5284.61  27
  -2  -1   6 56154.3 6327.14  14
   1  -3   6 41018.8 4666.17  27
  -1  -2   6 42681.9 4661.16  14
  -1  -2  -6 39325.0 4968.26  26
  -2  -1   6 39556.2 5111.56   7
  -2  -1  -6 29319.1 3855.31  13
  -2  -1  -6 41093.9 5217.36  25
  -1  -2   6 21993.7 4729.24   7
  -1  -2  -6 40366.0 6150.80  25
   1  -3  -6 27251.0 4178.63  25
   2  -3  -6 43085.5 5645.67  25
  -2   3  -6 39385.5 4660.52  13
  -1   3  -6 36584.9 5051.63  12
  -2   3  -6 32212.9 3647.20  12
   2   1  -6 35423.5 4115.04  23
   1   2  -6 34321.9 3953.44  23
  -2   3   6 23885.3 4258.40  12
   1  -3  -6 39661.6 4625.21   6
  -3   2   6 30259.5 3975.15  12
  -1  -2  -6 34565.4 4396.87   6
  -1   3   6 35622.1 3843.80  22
   1   2   6 42776.0 4605.20  22
  -3   1   6 32053.1 4110.98  11
  -2  -1  -6 48848.3 5907.91  11
  -3   1  -6 32941.2 4877.02  10
  -1   3  -6 38655.0 4559.19   9
  -1   3   6 18378.0 3145.16   9
  -2   3   6 39074.1 5377.42   9
   1   2  -6 30899.7 4850.04  33
   2   1  -6 40702.7 4612.13  33
  -2  -1  -6 16027.5 3387.73   8
   1  -3  -6 37018.3 4465.86  15
  -1  -2  -6 34632.8 4317.72  15
  -2  -1   6 27294.6 5824.34  30
  -1  -2   6 36148.5 4831.41  30
  -3   1  -6 55210.6 7146.26   8
  -1  -2  -6 39519.9 4765.94  30
   1  -3  -6 18189.5 3414.21  30
  -3   2   6 14141.2 8033.06   5
  -2  -1  -6 30934.3 4716.45  29
  -3   2  -6 53911.4 5644.60   8
  -2  -1  -7 4402.43 1684.16  29
   1  -3  -7 3191.97 1254.74  15
  -1  -2  -7 6295.09 1780.69  15
  -1  -2  -7 1629.84 955.321  29
  -1   3  -7 8275.97 2343.22  28
  -2  -1  -7 6690.92 1913.63   8
   1   2  -7 3168.44 1274.07  28
  -1   3  -7 6474.44 1688.61  15
   1   2   7 4891.58 1593.20  28
   2   1   7 6040.23 1666.86  28
  -2  -1   7 11490.5 2573.74  27
  -1  -2   7 9639.78 2306.06  27
  -1  -2   7 10088.2 2218.26  14
  -2   3  -7 8126.27 2335.26   8
   1  -3   7 6330.45 1804.61  27
  -1   3  -7 10506.3 3002.63   8
  -3   1   7 13216.7 3170.55  14
  -2  -1   7 9733.42 2258.70  14
  -1  -2  -7 4526.29 1634.89  26
   2  -3  -7 10731.2 2381.70  25
  -2  -1  -7 10887.1 2354.51  25
  -1  -2  -7 9405.76 2319.48  25
   1  -3  -7 9069.45 2260.10  25
  -2   3  -7 8555.84 1996.05  13
  -2  -1  -7 3937.42 1366.39  13
  -2  -1   7 7312.31 2021.20   7
  -1  -2   7 4279.40 1478.48   7
  -1  -2   7 10770.5 2132.04  24
  -2   3   7 10103.6 2226.71  12
   2   1  -7 2794.02 1142.42  23
   1   2  -7 6559.35 1855.81  23
  -1   3  -7 4464.01 1785.07  12
  -2   3  -7 7100.14 1967.15  12
  -3   2   7 4451.85 1436.75  12
  -1   3   7 3425.10 1133.51  22
   1   2   7 6489.74 1737.97  22
  -3   1   7 6306.00 2075.13  11
  -2  -1  -7 10921.8 2553.59  11
  -3   1  -7 2412.24 1261.89  10
  -2  -1  -7 4837.49 1706.44  10
   1  -3  -7 3758.73 1374.17   6
  -1  -2  -7 5225.49 1642.85   6
  -1   3  -7 8182.32 2140.54   9
   1   2  -7 8022.46 1948.10  33
   2   1  -7 8124.13 2372.56  33
  -1   3   7 8574.31 1990.62   9
  -2   3   7 5283.60 1932.99   9
  -3   2   7 3755.16 1095.13   9
  -1   3  -7 5667.69 1569.68   6
  -3   1  -7 10410.6 2156.66   8
  -1  -2   7 7439.96 2589.24  30
  -3   2  -7 10112.3 2133.52   8
   1  -3  -7 8790.29 2222.48  30
  -3   2   7 7128.66 4818.68   5
  -1  -2  -8 70014.0 6183.28  29
  -1   3  -8 89151.5 5507.60  15
   1   2  -8 71039.8 5132.31  15
  -2   3  -8 86399.7 6045.48   8
  -1   3  -8 76290.8 6758.90   8
   1   2   8 53498.3 5047.37  28
   2   1   8 71753.7 5559.05  28
  -3   1   8 99625.1 6811.79  14
  -2  -1   8 97688.1 6265.72  27
  -1  -2   8 97163.5 6601.25  27
  -2  -1   8 89087.4 5716.24  14
   1  -3   8 64970.1 5947.96  27
  -1  -2   8 89738.3 5948.04  14
  -1  -2  -8 66126.6 6033.53  26
  -2  -1   8 83882.2 5756.57   7
  -2  -1  -8 75161.9 5702.30  13
  -1  -2   8 70774.5 5252.82   7
  -3   1  -8 82720.6 5514.57  13
  -1  -2  -8 91043.3 6118.76  25
   1  -3  -8 92273.8 6308.31  25
  -3   2  -8 86644.5 5043.00  13
   2  -3  -8 98312.7 6270.03  25
  -2   3  -8 89038.6 5669.81  13
  -1  -2   8 90260.7 5066.36  24
   1  -3   8 80636.0 6162.83  24
   2  -3   8 70845.9 5710.55  24
  -1   3  -8 78412.2 7169.73  12
   2   1  -8 78791.6 5591.11  23
   1   2  -8 70590.1 6035.38  23
  -2   3   8 110726. 6502.59  12
  -3   2   8 90955.8 6106.86  12
   1  -3  -8 69052.3 5473.19   6
  -1  -2  -8 63241.4 5268.74   6
  -1   3   8 68809.6 4689.55  22
   1   2   8 62455.8 5142.70  22
  -2  -1  -8 85989.2 5700.99  11
  -3   1  -8 78046.6 6840.31  10
  -2  -1  -8 62538.5 5929.76  10
  -1   3  -8 79547.5 5449.68   6
   1   2  -8 77208.4 5355.32   6
  -1   3  -8 71202.9 6335.76   9
  -1   3   8 87636.2 5183.71   9
  -2   3   8 38909.8 4801.45   9
  -3   2   8 68265.5 4832.76   9
   1   2  -8 82430.5 5164.54  33
   2   1  -8 81475.0 6838.73  33
   3  -1  -8 91095.6 5855.74  32
  -3   2   8 94158.6 16539.2   5
  -2  -1  -8 89650.3 6742.59   8
   1  -3  -8 59109.1 5047.83  15
  -1  -2  -8 70733.7 5677.27  15
  -3   1  -8 91853.5 5717.21   8
  -1  -2   8 75194.8 7465.07  30
   1  -3  -8 93181.2 6142.88  30
  -3   2  -8 90557.1 5664.68   8
  -2  -1  -8 84298.7 6892.62  29
   1   2  -9 23718.8 2597.61  15
   3  -2  -9 22056.1 2359.87  29
  -2   3  -9 20134.3 2538.96   8
   1   2   9 25150.4 3016.49  28
   2   1   9 24627.2 2900.02  28
  -3   1   9 24194.8 2942.96  14
  -2  -1   9 24469.3 2853.04  27
  -1  -2   9 23647.1 2866.25  27
  -2  -1   9 23115.1 2636.36  14
  -1  -2   9 23460.0 2806.65  14
  -1  -2  -9 21023.8 3022.13  26
   1  -3   9 20351.2 2360.50  14
  -2  -1   9 17885.8 2178.20   7
  -2  -1  -9 24272.1 2879.00  13
  -3   1  -9 24525.0 2612.97  13
  -1  -2  -9 22635.6 2624.05  25
   1  -3  -9 25963.1 3121.75  25
  -3   2  -9 24513.0 2565.12  13
   2  -3  -9 25473.6 2883.46  25
  -2   3  -9 25556.2 2801.15  13
  -1   3  -9 21787.0 2634.91  13
  -1  -2   9 19443.8 2112.35  24
   2  -3   9 20882.6 2265.60  24
   1  -3   9 22473.8 2773.93  24
   2   1  -9 20534.3 2560.03  23
   1   2  -9 22664.1 2821.75  23
  -2   3   9 21681.1 2221.62  12
  -3   2   9 23688.0 2626.13  12
   1  -3  -9 21507.8 2601.45   6
  -1  -2  -9 24604.0 2961.62   6
  -1   3   9 21464.8 2177.40  22
   1   2   9 24039.3 2834.32  22
  -3   1  -9 24533.5 3284.26  10
  -2  -1  -9 22260.6 3006.22  10
  -1   3  -9 21457.9 2282.48   6
   1   2  -9 25084.9 2672.42   6
  -1   3   9 19171.9 2094.15   9
  -2   3   9 28997.0 3301.36   9
  -3   2   9 23410.3 2438.46   9
   1   2  -9 22555.2 2449.51  33
   2   1  -9 23384.4 2866.67  33
   3  -1  -9 22513.6 2401.23  32
   2   1  -9 22738.5 2505.59  32
  -2  -1  -9 23494.6 3089.41   8
   1  -3  -9 15753.5 2301.20  15
  -1  -2  -9 23004.1 2902.84  15
  -3   1  -9 23481.3 2675.84   8
   1  -3  -9 24883.9 2839.72  30
  -3   2  -9 25787.6 2769.42   8
  -2  -1  -9 23393.4 3174.60  29
  -1   3  -9 23099.5 2306.83  15
  -1  -2  -9 24116.8 3229.80  29
  -2   3 -10 12725.0 1500.44   8
  -3   1  10 20421.2 5681.67   5
   3  -2 -10 14551.1 1720.95  29
   1  -3 -10 6497.01 1323.29  15
   1   2  10 14764.4 1861.11  28
   2   1  10 14633.9 1826.72  28
  -2  -1  10 16016.5 2082.60  27
  -1  -2  10 22998.8 3005.98  27
  -2  -1  10 13650.4 1820.75  14
  -1  -2  10 14251.6 1822.04  14
   1  -3  10 11250.9 1309.17  14
  -1  -2 -10 13198.6 1908.45  26
   3  -1 -10 10510.1 1458.36  26
  -2  -1 -10 15290.3 1938.48  13
  -3   1 -10 12819.2 1494.26  13
  -1  -2 -10 12985.6 1508.99  25
   1  -3 -10 16677.9 2243.36  25
  -3   2 -10 12450.0 1543.51  13
   2  -3 -10 15046.5 1954.05  25
  -2   3 -10 14870.7 1911.19  13
  -1   3 -10 12490.4 1574.48  13
  -1  -2  10 13901.8 1531.05  24
   1  -3  10 13680.9 1690.27  24
   2   1 -10 9526.40 1362.65  23
   1   2 -10 14651.7 1928.17  23
   1  -3 -10 11373.8 1663.60   6
  -1  -2 -10 15720.8 1903.96   6
  -3   2  10 14336.0 1717.87  12
  -3   1  10 14187.9 1657.21  12
   1   2  10 13126.6 1652.11  22
  -3   1 -10 13574.0 2100.98  10
  -1   3 -10 14558.6 1633.83   6
  -2  -1 -10 12602.6 1791.53  10
   1   2 -10 9548.41 1359.58   6
  -2   3  10 16475.7 1959.68   9
  -3   2  10 14906.1 1693.13   9
   1   2 -10 12913.7 1651.25  33
   2   1 -10 12630.6 1661.27  33
   3  -1 -10 12972.9 1506.96  32
   2   1 -10 11692.6 1342.47  32
  -1  -2 -10 16520.6 2065.97  15
   1  -3  10 9905.20 1519.46  31
  -3   1 -10 13738.8 1782.89   8
   1  -3 -10 13547.2 1700.46  30
  -3   2 -10 14729.5 1820.23   8
   2  -3 -10 17432.5 2139.95  30
  -1   3 -10 13715.7 1447.29  15
  -2  -1 -10 13429.6 1926.43  29
   1   2 -10 13296.8 1546.70  15
  -1  -2 -10 15177.4 2140.93  29
   3  -1 -11 148587. 4487.02  29
  -2  -1  11 145025. 4511.97  27
  -2  -1  11 137807. 4528.39  14
   2  -3 -11 161199. 4766.62  25
  -2   3 -11 137093. 4119.80  13
   1   2 -11 157916. 4706.98  23
  -3   2  11 154885. 4302.41  12
   2   1 -11 145145. 4753.03  33
  -3   2 -11 151351. 4310.65   8
   2  -3 -11 159215. 4663.97  30
  -1  -2 -11 144593. 4979.13  29
   0   3   0 378213. 12263.5  28
   0  -3   0 375442. 17927.8  27
  -3   0   0 409326. 17299.4   7
   0  -3   0 374973. 18065.5   7
  -3   3   0 365032. 10409.2  12
   0   3   0 365892. 11712.5  22
  -3   0   0 398764. 15671.3  11
   0  -3   0 376114. 12488.9  30
   0   3  -1 573.123 476.637  28
   0   3   1 181.942 275.628  28
   0  -3   1 116.359 301.905  27
   0  -3  -1 786.602 813.122  27
   0  -3  -1-1.74865 374.410  25
   0  -3   1 758.470 745.583   7
   0  -3  -1 977.616 1018.69   7
  -3   3  -1-35.5392 105.311  12
  -3   3   1 346.170 335.507  12
   0   3  -1 502.227 437.613  22
   0   3   1-162.988 252.725  22
  -3   0   1 137.574 261.260  11
  -3   0  -1 82.9071 240.501  11
   0   3  -1-133.511 268.327   9
   0   3   1-209.326 322.659   9
   0  -3   1-48.8413 138.819  30
   0  -3  -1 339.726 415.521  30
   0   3  -2 105331. 6435.00  28
   0   3   2 112175. 7005.68  28
   0  -3   2 123594. 9925.35  27
   0  -3  -2 111421. 9407.88  27
  -3   0   2 68862.2 8832.38   7
   0  -3  -2 106161. 6773.83  25
   0  -3   2 105345. 8626.91   7
   0  -3  -2 88689.4 9923.43   7
   0   3  -2 76768.2 9434.49  12
  -3   3   2 109372. 6293.01  12
   0   3  -2 111118. 6695.33  22
   0   3   2 117246. 6992.93  22
  -3   0   2 141067. 8828.90  11
  -3   0  -2 108537. 9547.03  11
   0   3  -2 114416. 7778.60   9
   0  -3   2 98527.3 6363.86  30
   0  -3  -2 112269. 7394.99  30
   0  -3  -3 245.163 380.143  15
   0   3  -3 290.873 351.881  28
   0   3   3 296.561 360.068  28
  -3   3  -3 1103.55 873.968   8
   0  -3   3 154.789 331.622  27
   0  -3  -3 2518.04 1228.84  25
  -3   0   3-1088.56 1045.35   7
   0  -3   3 669.425 599.285   7
   0  -3  -3 1235.96 978.832   7
   0   3  -3 66.2599 159.165  23
   0   3  -3-743.858 857.431  12
  -3   3   3 1327.11 712.327  12
   0   3  -3 269.533 330.895  22
   0   3   3-404.641 417.181  22
  -3   0   3 327.690 348.071  11
  -3   0  -3-1278.30 1015.52  11
   0  -3  -3 238.633 386.471   6
   0   3  -3 378.775 339.815   9
   0  -3   3 372.070 381.597  30
   0  -3  -3 3098.06 1175.42  30
   0  -3  -4 3173.48 1381.95  15
   0   3  -4 3655.11 1248.12  28
   0   3   4 4396.09 1391.40  28
  -3   3  -4 9732.96 2393.33   8
   0  -3   4 2761.25 1356.36  27
   0  -3  -4 3539.54 1369.02  25
  -3   0   4 12338.8 2879.04   7
   0  -3   4 5947.39 1721.31   7
   0  -3   4 3465.95 1291.28  24
   0  -3  -4 6725.76 2008.35   7
   0   3  -4 3718.11 1269.28  23
  -3   3   4 3532.92 1217.70  12
   0   3  -4 3202.19 1093.78  22
   0   3   4 4183.76 1342.27  22
  -3   0   4 3122.87 1060.58  11
  -3   0  -4 2863.68 1442.45  11
   0  -3  -4 4319.15 1694.40   6
   0   3  -4 1614.41 947.757   9
  -3   3   4 4038.98 1187.84   9
   0  -3   4 2860.34 1024.25  30
   0  -3  -4 3290.09 1183.13  30
   0  -3  -5-857.190 677.808  15
   0   3  -5 72.2408 176.066  28
   0   3   5 359.223 382.635  28
  -3   3  -5 111.706 229.134   8
   0  -3   5 271.077 408.346  27
  -3   0   5-1344.13 818.229  14
   0  -3   5 408.567 426.882  14
   0  -3  -5 5.21106 52.3652  25
  -3   0   5-178.795 320.123   7
   0  -3   5 349.121 395.965   7
   0  -3   5 92.0946 190.905  24
   0  -3  -5 531.456 463.081   7
   0   3  -5 751.545 534.687  23
  -3   3   5 433.577 485.606  12
   0   3   5 1942.08 887.993  22
  -3   0  -5-435.382 486.120  11
  -3   0  -5 448.239 498.938  10
   0  -3  -5-58.1145 172.207   6
   0   3  -5 496.279 514.373   9
   3   0  -5-310.098 352.832  33
  -3   3   5-73.4317 162.976   9
   0  -3  -5 903.701 624.433  30
  -3   3  -6 144776. 7184.70   8
   0   3  -6 98739.2 7077.50  28
   0   3   6 99070.4 5917.85  28
  -3   0   6 89440.4 6306.81  27
  -3   0   6 106251. 7031.83  14
   0  -3   6 100469. 7104.02  27
   0  -3   6 122306. 6515.68  14
   0  -3   6 98496.0 7719.08   7
   0  -3  -6 93924.2 6844.30  25
   3  -3  -6 107203. 5644.17  25
   0  -3   6 117253. 5612.88  24
   0  -3  -6 87723.1 6593.44   6
  -3   3   6 62230.0 5620.82  12
   0   3   6 93855.5 6036.29  22
  -3   0  -6 121082. 6599.04  11
  -3   0  -6 80855.9 6643.25  10
   0   3  -6 103626. 6777.02   9
  -3   3   6 79416.1 5044.81   9
   3   0  -6 85298.7 6697.28  33
   0  -3  -6 99420.1 7200.70  15
   0  -3  -6 116366. 6458.54  30
   0  -3  -7 837.572 597.390  15
  -3   0  -7-1036.42 530.100   8
   0   3  -7 464.182 426.698  28
   0   3  -7 164.697 228.413  15
   0   3   7 179.382 213.928  28
  -3   3  -7-91.7257 151.533   8
   0  -3   7 520.284 410.138  27
  -3   0   7-35.2256 114.845  14
   0  -3   7 43.7146 108.144  14
   0  -3  -7 15.6633 78.6991  25
   3  -3  -7 1477.42 615.138  25
   0  -3   7-158.479 187.034  24
  -3   3   7-219.796 296.476  12
   0   3   7 61.8275 140.696  22
  -3   0  -7-132.741 247.698  10
   0  -3  -7 223.534 301.518   6
   3   0  -7 238.269 250.994  33
  -3   3   7-429.553 335.532   9
   0   3  -7 422.045 361.023   6
   0  -3  -7 411.711 341.814  30
   0   3  -8 285024. 8347.03  15
   0  -3   8 268245. 8117.32  27
   0  -3   8 281161. 7912.60  14
   0  -3  -8 292071. 8946.90  25
   0  -3   8 257968. 7421.67  24
   0  -3  -8 310008. 9798.45   6
  -3   3   8 283572. 7953.85  12
   0   3   8 287390. 8679.63  22
  -3   0  -8 290687. 10067.6  10
   0   3  -8 280729. 8685.03   6
  -3   3   8 287425. 7821.14   9
   3   0  -8 279311. 8373.85  32
  -3   0  -8 279758. 7846.32   8
   0  -3  -8 295697. 9881.68  15
   0  -3  -8 288768. 7616.11  30
  -3   3  -8 293167. 7981.76   8
   2  -4   0 280986. 9077.26  27
  -2  -2   0 161647. 9361.89   7
  -2   4   0 278641. 9046.07  12
   2   2   0 277380. 7941.46  23
  -4   2   0 154273. 15366.2  11
  -2   4   0 278870. 7995.73   9
  -2  -2   0 162487. 12565.1  30
   2  -4   1 487.482 368.724  27
   2  -4  -1 290.541 311.231  27
  -2   4  -1-231.194 417.265   8
  -2   4   1 994.387 765.261   8
  -2  -2  -1 1501.47 831.199  25
  -2  -2   1-466.928 547.296   7
   2   2  -1-520.198 353.235  23
   2   2   1-385.321 301.895  23
  -2   4  -1 522.659 388.248  12
  -2   4   1 361.006 347.470  12
  -2  -2  -1-562.090 387.474  11
  -2   4  -1 22.4443 85.2458   9
  -2   4   1 300.177 281.284   9
  -2  -2   1 1807.31 1266.90  30
  -2   4  -2 76519.1 7727.01   8
   2  -4   2 74551.3 4647.99  27
   2  -4  -2 68686.6 5201.20  27
  -2  -2   2 117109. 8548.14   7
  -2  -2  -2 91681.1 6680.74  25
  -2   4  -2 92061.9 5376.67  12
  -2   4   2 56218.6 4952.37  12
   2   2  -2 83295.6 4427.29  23
   2   2   2 101464. 5364.07  23
  -2  -2  -2 79374.4 5132.35  11
  -2   4  -2 90716.4 4699.17   9
  -2   4   2 93434.4 5173.81   9
  -2  -2   2 75311.3 8064.65  30
  -2   4  -3 345.343 474.449   8
  -2  -2  -3 933.419 645.731  25
  -2  -2   3 1594.73 831.987   7
   2   2  -3-29.7832 84.6510  23
   2   2   3 755.511 439.425  23
  -2   4  -3-168.744 252.777  12
  -2   4   3 1031.86 598.156  12
  -2  -2  -3 777.942 506.196  11
  -2   4  -3 54.9323 115.101   9
  -2   4   3-381.786 312.729   9
  -2  -2   3-1133.86 863.775  30
  -2   4  -4 3656.78 1155.70   8
  -2  -2  -4 4314.34 1237.93  25
  -2  -2   4 3591.45 1015.91   7
   2  -4   4 1255.32 586.565  24
   2   2  -4 1570.39 581.087  23
   2   2   4 1876.97 638.545  23
  -2   4  -4 2309.38 891.573  12
  -2  -2  -4 3152.87 945.856  11
  -2   4   4 1961.88 648.038   9
   0   0   0    0.00    0.00   0

TITL 2021Uniandes026_Cu_WSe2_TV0061_V2_Paula_autored in P6(3)/mmc
REM P6(3)/mmc (#194 in standard setting)
CELL 1.54184   3.285480   3.285480  12.977031  90.0000  90.0000 120.0000
ZERR    2.00   0.000472   0.000472   0.001520   0.0000   0.0000   0.0000
LATT  1
SYMM -y, x-y, z
SYMM -x+y,-x, z
SYMM -x,-y, z+1/2
SYMM  y,-x+y, z+1/2
SYMM  x-y, x, z+1/2
SYMM  y, x,-z
SYMM  x-y,-y,-z
SYMM -x,-x+y,-z
SYMM -y,-x,-z+1/2
SYMM -x+y, y,-z+1/2
SYMM  x, x-y,-z+1/2
SFAC Se W
UNIT 4.00 2.00
TREF
HKLF 4
END
;
_shelx_hkl_checksum   17733

