 
data_Se3.73Te0.27W2
 
_audit_creation_method            'SHELXL-2018/3'
_shelx_SHELXL_version_number      '2018/3'
_chemical_name_systematic         ?
_chemical_name_common             ?
_chemical_melting_point           ?
_chemical_formula_moiety          'Se3.73 Te0.27 W2'
_chemical_formula_sum
 'Se3.73 Te0.27 W2' 
_chemical_formula_weight          696.85

loop_
 _atom_type_symbol
 _atom_type_description
 _atom_type_scat_dispersion_real
 _atom_type_scat_dispersion_imag
 _atom_type_scat_source
 'Se'  'Se'  -0.7943   1.1372
 'International Tables Vol C Tables 4.2.6.8 and 6.1.1.4'
 'W'  'W'  -5.4734   5.5774
 'International Tables Vol C Tables 4.2.6.8 and 6.1.1.4'
 'Te'  'Te'  -0.1759   6.3531
 'International Tables Vol C Tables 4.2.6.8 and 6.1.1.4'
 
_space_group_crystal_system       hexagonal
_space_group_IT_number            194
_space_group_name_H-M_alt         'P 63/m m c'
_space_group_name_Hall            '-P 6c 2c'
 
_shelx_space_group_comment
;
The symmetry employed for this shelxl refinement is uniquely defined
by the following loop, which should always be used as a source of
symmetry information in preference to the above space-group names.
They are only intended as comments.
;
 
loop_
 _space_group_symop_operation_xyz
 'x, y, z'
 'y, -x+y, z+1/2'
 'x-y, x, z+1/2'
 '-x, -x+y, -z'
 '-x+y, y, z'
 '-x+y, -x, z'
 'y, x, -z'
 '-y, -x, -z+1/2'
 '-y, x-y, z'
 '-x+y, y, -z+1/2'
 'x, x-y, -z+1/2'
 '-x, -y, z+1/2'
 '-x, -y, -z'
 '-y, x-y, -z-1/2'
 '-x+y, -x, -z-1/2'
 'x, x-y, z'
 'x-y, -y, -z'
 'x-y, x, -z'
 '-y, -x, z'
 'y, x, z-1/2'
 'y, -x+y, -z'
 'x-y, -y, z-1/2'
 '-x, -x+y, z-1/2'
 'x, y, -z-1/2'
 
_cell_length_a                    3.3074(5)
_cell_length_b                    3.3074(5)
_cell_length_c                    13.180(2)
_cell_angle_alpha                 90
_cell_angle_beta                  90
_cell_angle_gamma                 120
_cell_volume                      124.86(5)
_cell_formula_units_Z             1
_cell_measurement_temperature     298(2)
_cell_measurement_reflns_used     927
_cell_measurement_theta_min       6.7420
_cell_measurement_theta_max       76.2470
 
_exptl_crystal_description        'platy'
_exptl_crystal_colour             'black'
_exptl_crystal_density_meas       ?
_exptl_crystal_density_method     ?
_exptl_crystal_density_diffrn     9.268          
_exptl_crystal_F_000              289
_exptl_transmission_factor_min    ?
_exptl_transmission_factor_max    ?
_exptl_crystal_size_max           0.060
_exptl_crystal_size_mid           0.040
_exptl_crystal_size_min           0.010
_exptl_absorpt_coefficient_mu     125.910
_shelx_estimated_absorpt_T_min    0.049
_shelx_estimated_absorpt_T_max    0.366
_exptl_absorpt_correction_type    multi-scan
_exptl_absorpt_correction_T_min   0.34305
_exptl_absorpt_correction_T_max   1.00000
_exptl_absorpt_process_details
;
CrysAlisPro 1.171.41.119a (Rigaku Oxford Diffraction, 2021)
Empirical absorption correction using spherical harmonics,
implemented in SCALE3 ABSPACK scaling algorithm.
;
_exptl_absorpt_special_details    ?
_diffrn_ambient_temperature       298(2)
_diffrn_radiation_wavelength      1.54184
_diffrn_radiation_type            CuK\a
_diffrn_source                    'SuperNova (Cu) micro-focus sealed X-ray Source'
_diffrn_measurement_device        'four-circle diffractometer'
_diffrn_measurement_device_type   'SuperNova, Dual, Cu at zero, Atlas' 
_diffrn_measurement_method        '\w scans'
_diffrn_detector                  'CCD plate'
_diffrn_detector_type             'Atlas' 
_diffrn_detector_area_resol_mean  10.6144
_diffrn_reflns_number             1270
_diffrn_reflns_av_unetI/netI      0.0245
_diffrn_reflns_av_R_equivalents   0.0904
_diffrn_reflns_limit_h_min        -4
_diffrn_reflns_limit_h_max        3
_diffrn_reflns_limit_k_min        -2
_diffrn_reflns_limit_k_max        4
_diffrn_reflns_limit_l_min        -16
_diffrn_reflns_limit_l_max        16
_diffrn_reflns_theta_min          6.718
_diffrn_reflns_theta_max          76.035
_diffrn_reflns_theta_full         67.684
_diffrn_measured_fraction_theta_max   1.000
_diffrn_measured_fraction_theta_full  1.000
_diffrn_reflns_Laue_measured_fraction_max    1.000
_diffrn_reflns_Laue_measured_fraction_full   1.000
_diffrn_reflns_point_group_measured_fraction_max   1.000
_diffrn_reflns_point_group_measured_fraction_full  1.000
_reflns_number_total              72
_reflns_number_gt                 71
_reflns_threshold_expression      'I > 2\s(I)'
_reflns_Friedel_coverage          0.000
_reflns_Friedel_fraction_max      .
_reflns_Friedel_fraction_full     .
 
_reflns_special_details
;
 Reflections were merged by SHELXL according to the crystal
 class for the calculation of statistics and refinement.
 
 _reflns_Friedel_fraction is defined as the number of unique
 Friedel pairs measured divided by the number that would be
 possible theoretically, ignoring centric projections and
 systematic absences.
;
 
_computing_data_collection
;
CrysAlisPro, Agilent Technologies,
Version 1.171.37.35 (release 13-08-2014 CrysAlis171 .NET)
(compiled Aug 13 2014,18:06:01)
;
_computing_cell_refinement
;
CrysAlisPro, Agilent Technologies,
Version 1.171.37.35 (release 13-08-2014 CrysAlis171 .NET)
(compiled Aug 13 2014,18:06:01)
;
_computing_data_reduction
;
CrysAlisPro, Agilent Technologies,
Version 1.171.37.35 (release 13-08-2014 CrysAlis171 .NET)
(compiled Aug 13 2014,18:06:01)
;
_computing_structure_solution     'Superflip (Palatinus & Chapuis, 2007)'
_computing_structure_refinement 'SHELXL-2018/3 (Sheldrick, 2018)'
_computing_molecular_graphics     ?
_computing_publication_material   ?
_refine_special_details           ?
_refine_ls_structure_factor_coef  Fsqd
_refine_ls_matrix_type            full
_refine_ls_weighting_scheme       calc
_refine_ls_weighting_details
'w=1/[\s^2^(Fo^2^)+(0.0658P)^2^+0.7202P] where P=(Fo^2^+2Fc^2^)/3'
_atom_sites_solution_primary      iterative
_atom_sites_solution_secondary    difmap
_atom_sites_solution_hydrogens    .
_refine_ls_hydrogen_treatment     undef
_refine_ls_extinction_method      none
_refine_ls_extinction_coef        .
_refine_ls_number_reflns          72
_refine_ls_number_parameters      6
_refine_ls_number_restraints      0
_refine_ls_R_factor_all           0.0373
_refine_ls_R_factor_gt            0.0363
_refine_ls_wR_factor_ref          0.0981
_refine_ls_wR_factor_gt           0.0968
_refine_ls_goodness_of_fit_ref    1.263
_refine_ls_restrained_S_all       1.263
_refine_ls_shift/su_max           0.000
_refine_ls_shift/su_mean          0.000
 
loop_
 _atom_site_label
 _atom_site_type_symbol
 _atom_site_fract_x
 _atom_site_fract_y
 _atom_site_fract_z
 _atom_site_U_iso_or_equiv
 _atom_site_adp_type
 _atom_site_occupancy
 _atom_site_site_symmetry_order  
 _atom_site_calc_flag
 _atom_site_refinement_flags_posn
 _atom_site_refinement_flags_adp
 _atom_site_refinement_flags_occupancy
 _atom_site_disorder_assembly
 _atom_site_disorder_group
Se1 Se -0.333333 0.333333 0.62113(16) 0.0076(8) Uani 0.9315 6 d S T P . .
W1 W 0.333333 0.666667 0.750000 0.0055(7) Uani 1 12 d S T P . .
Te1 Te -0.333333 0.333333 0.62113(16) 0.0076(8) Uani 0.0685 6 d S T P . .
 
loop_
 _atom_site_aniso_label
 _atom_site_aniso_U_11
 _atom_site_aniso_U_22
 _atom_site_aniso_U_33
 _atom_site_aniso_U_23
 _atom_site_aniso_U_13
 _atom_site_aniso_U_12
Se1 0.0029(9) 0.0029(9) 0.0168(11) 0.000 0.000 0.0015(5)
W1 0.0029(8) 0.0029(8) 0.0108(9) 0.000 0.000 0.0014(4)
Te1 0.0029(9) 0.0029(9) 0.0168(11) 0.000 0.000 0.0015(5)
 
_geom_special_details
;
 All esds (except the esd in the dihedral angle between two l.s. planes)
 are estimated using the full covariance matrix.  The cell esds are taken
 into account individually in the estimation of esds in distances, angles
 and torsion angles; correlations between esds in cell parameters are only
 used when they are defined by crystal symmetry.  An approximate (isotropic)
 treatment of cell esds is used for estimating esds involving l.s. planes.
;
 
loop_
 _geom_bond_atom_site_label_1
 _geom_bond_atom_site_label_2
 _geom_bond_distance
 _geom_bond_site_symmetry_2
 _geom_bond_publ_flag
Se1 W1 2.5557(14) 1_455 ?
Se1 W1 2.5557(14) . ?
Se1 W1 2.5557(14) 1_445 ?
 
loop_
 _geom_angle_atom_site_label_1
 _geom_angle_atom_site_label_2
 _geom_angle_atom_site_label_3
 _geom_angle
 _geom_angle_site_symmetry_1
 _geom_angle_site_symmetry_3
 _geom_angle_publ_flag
W1 Se1 W1 80.64(5) 1_455 . ?
W1 Se1 W1 80.64(5) 1_455 1_445 ?
W1 Se1 W1 80.64(5) . 1_445 ?
Se1 W1 Se1 136.13(3) . 14_667 ?
Se1 W1 Se1 80.64(5) . 1_655 ?
Se1 W1 Se1 83.31(7) 14_667 1_655 ?
Se1 W1 Se1 136.13(3) . 14_677 ?
Se1 W1 Se1 80.64(5) 14_667 14_677 ?
Se1 W1 Se1 136.13(3) 1_655 14_677 ?
Se1 W1 Se1 83.31(7) . 14_567 ?
Se1 W1 Se1 80.64(5) 14_667 14_567 ?
Se1 W1 Se1 136.13(3) 1_655 14_567 ?
Se1 W1 Se1 80.64(5) 14_677 14_567 ?
Se1 W1 Se1 80.64(5) . 1_665 ?
Se1 W1 Se1 136.13(3) 14_667 1_665 ?
Se1 W1 Se1 80.64(5) 1_655 1_665 ?
Se1 W1 Se1 83.31(7) 14_677 1_665 ?
Se1 W1 Se1 136.13(3) 14_567 1_665 ?
 
 
_refine_diff_density_max    2.911
_refine_diff_density_min   -2.924
_refine_diff_density_rms    0.595

# start Validation Reply Form
_vrf_PLAT971_Se3.73Te0.27W2
;
PROBLEM: Check Calcd Resid. Dens. 2.02Ang From Te1 2.72 eA-3
RESPONSE: The crystal measured is very tiny. Considering that the
compound crystallizes in layers, this measured crystal was a tiny layer smaller
than 0.1 mm. Despite that the unit cell was calculated using up to 85 % of the
reflections, unaccounted for twinning is not discarted. We tried to consider
twins in our refinement but the best results are reported in this cif file. The
wrong assigning of atoms is not possible because other techniques confirmed
the composition.
;
_vrf_PLAT972_Se3.73Te0.27W2
;
PROBLEM: Check Calcd Resid. Dens. 1.39Ang From Te1 -3.23 eA-3
RESPONSE: The crystal measured is very tiny. Considering that the
compound crystallizes in layers, this measured crystal was a tiny layer smaller
than 0.1 mm. Despite that the unit cell was calculated using up to 85 % of the
reflections, unaccounted for twinning is not discarted. We tried to consider
twins in our refinement but the best results are reported in this cif file. The
wrong assigning of atoms is not possible because other techniques confirmed
the composition.
;
_vrf_PLAT077_Se3.73Te0.27W2
;
PROBLEM: Unitcell Contains Non-integer Number of Atoms .. Please Check
RESPONSE: The synthesis produced substitutional disorder in the Se atoms with Te.
;
_vrf_PLAT906_Se3.73Te0.27W2
;
PROBLEM: Large K Value in the Analysis of Variance ...... 2.180 Check
RESPONSE: This is a frequent problem for integration of low-intensity
reflections in high-background images. It does not have a significant 
efect on the refinement results.
;
# end Validation Reply Form

_shelx_res_file
;
TITL 2021Uniandes026_Cu_WSe2_TV0061_V2_Paula_
    Copyprevious.res
    created by SHELXL-2018/3 at 19:54:17 on 10-Jul-2022
CELL  1.54184   3.30736   3.30736  13.18036  90.00000  90.00000 120.00000
ZERR   24 0.00053 0.00053 0.00224 0.0000 0.0000 0.0000
LATT   1
SYMM  Y,-X+Y,Z+0.500
SYMM  X-Y,X,Z+0.500
SYMM  -X,-X+Y,-Z
SYMM  -X+Y,Y,Z
SYMM  -X+Y,-X,Z
SYMM  Y,X,-Z
SYMM  -Y,-X,-Z+0.500
SYMM  -Y,X-Y,Z
SYMM  -X+Y,Y,-Z+0.500
SYMM  X,X-Y,-Z+0.500
SYMM  -X,-Y,Z+0.500
SFAC SE W TE
UNIT 3.726 2 0.2741
LIST 4 ! automatically inserted. Change 6 to 4 for CHECKCIF!!
L.S. 10
FMAP 2
PLAN 10
CONF
ACTA
rem OMIT  -1   2   8
TEMP 25
SIZE 0.06 0.04 0.01
EXYZ Se1 Te1
EADP Se1 Te1
WGHT    0.065800    0.720200
FVAR       5.33860
SE1   1   -0.333333    0.333333    0.621126    10.15525    0.00295    0.00295 =
         0.01675    0.00000    0.00000    0.00147
W1    2    0.333333    0.666667    0.750000    10.08333    0.00288    0.00288 =
         0.01081    0.00000    0.00000    0.00144
TE1   3   -0.333333    0.333333    0.621126    10.01142    0.00295    0.00295 =
         0.01675    0.00000    0.00000    0.00147
HKLF 4




REM  2021Uniandes026_Cu_WSe2_TV0061_V2_Paula_
REM wR2 = 0.0981, GooF = S = 1.263, Restrained GooF = 1.263 for all data
REM R1 = 0.0363 for 71 Fo > 4sig(Fo) and 0.0373 for all 72 data
REM 6 parameters refined using 0 restraints

END

WGHT      0.0658      0.7202

REM Highest difference peak  2.911,  deepest hole -2.924,  1-sigma level  0.595
Q1    1  -0.6667  0.6667  0.5615  10.16667  0.05    2.91
Q2    1  -0.3333  0.3333  0.5663  10.16667  0.05    2.07
Q3    1   0.0000  1.0000  0.7500  10.08333  0.05    1.83
Q4    1   0.8290  0.6579  0.7500  10.25000  0.05    1.37
Q5    1  -0.6331  0.3669  0.5000  10.50000  0.05    1.32
Q6    1   0.5363  1.0727  0.7070  10.50000  0.05    1.26
Q7    1  -0.5000  0.0000  0.5000  10.25000  0.05    1.12
Q8    1  -0.3333  0.3333  0.6974  10.16667  0.05    1.11
Q9    1  -0.6656  0.3526  0.6162  11.00000  0.05    1.09
Q10   1  -0.5303 -0.0606  0.6560  10.50000  0.05    1.08
;
_shelx_res_checksum   64289

_shelx_hkl_file
;
   0   0  -2 449574. 8829.17   2
   0   0   2 426459. 8893.22  21
   0   0  -3 213.460 368.634   2
   0   0   3 1134.86 549.113  21
   0   0  -4 1361.14 612.169   2
   0   0   4 1163.71 640.522  21
   0   0   5 144.416 323.626  21
   0   0  -5 77.4129 294.932   2
   0   0  -6 513916. 13650.8   2
   0   0   6 474780. 13299.6  21
   0   0   7 226.563 330.581  21
   0   0  -7-238.289 513.045   2
   0   0   8 862509. 20650.8  21
   0   0  -8 935815. 21175.4   2
   0   0   9-184.092 347.504  21
   0   0  -9 211.823 350.276   2
   0   0  10 113851. 7171.84  21
   0   0  10 130552. 4956.23  10
   0   0 -10 122073. 4733.68  24
   0   0  10 130322. 4990.10  18
   0   0 -10 113934. 7183.99   2
   0   0  11 759.894 616.815  21
   0   0 -11-49.4276 201.714  24
   0   0  11 267.819 237.665  10
   0   0  11 164.471 277.242  18
   0   0 -11 719.474 594.828   2
   0   0 -12 5816.54 970.800  16
   0   0  12 4885.75 927.869  18
   0   0 -12 6088.94 1067.55  24
   0   0  12 6621.98 1077.22  10
   0   0 -13 29.0995 178.729  24
   0   0 -13 76.7533 150.761  16
   0   0  13-155.705 202.273  10
   0   0 -14 156008. 5135.60  24
   0   0 -14 149954. 4664.09  16
   0   0  14 158203. 4886.77  10
   0   0  15 114.768 231.980  10
   0   0 -15 46.7833 148.825  16
   0   0 -15 149.600 224.916  24
   0   0 -16 219162. 4927.04  24
   0   0  16 222614. 4637.16  10
   0   0 -16 208205. 4185.91  16
   1  -1   0 380404. 7302.21   1
   1   0   0 365329. 8135.56   1
   0  -1   0 333537. 7254.78  19
   0   1   0 266465. 11811.8   4
  -1   0   0 399765. 8541.46  22
  -1   1   0 422243. 10435.4   3
   0   1   0 413193. 10106.6   3
   1  -1   0 473950. 10193.5  23
   1  -1   0 403508. 7798.80  20
  -1   1   0 375782. 7616.99  22
  -1   1   0 275259. 13720.8   4
  -1   0   0 347281. 8005.38  19
   1   0   0 377855. 8697.94   2
   0   1   1 30256.5 3862.48   4
  -1   1  -1 39698.2 3156.70   3
   1  -1   1 31703.7 1896.76   1
   0  -1  -1 32096.4 2102.71  19
  -1   0  -1 35129.1 2461.03  22
   1  -1  -1 24336.5 1323.92   2
  -1   0  -1 33031.1 2473.44  19
  -1   1  -1 34892.6 2215.36  22
   1   0  -1 32414.2 2272.45   1
   1  -1   1 38644.8 2590.65  20
  -1   0   1 30973.2 2255.59  19
  -1   1  -1 45946.8 5378.57   4
  -1   0   1 32024.0 2241.20  22
   0   1   1 30702.1 2045.17  21
   1   0  -1 32513.7 2397.12   2
  -1   1   1 31782.5 2003.26  22
   0   1  -1 29310.4 1848.68   2
   1  -1  -1 36159.0 2397.22  23
   1   0   1 32307.9 2394.91   1
   0   1   1 35244.0 2615.72   3
   0  -1   1 29892.2 2095.75  19
  -1   1   1 35975.4 2869.63   3
   0   1  -1 42040.1 4363.63   4
  -1   1   1 37707.8 2309.68  21
  -1   1   1 45735.1 5418.14   4
   1  -1   2 78006.2 3235.91   1
   0   1  -2 80886.8 3369.94   2
   0  -1  -2 75143.2 2406.14  22
  -1   1   2 84052.5 4491.57  21
   1  -1   2 97698.8 4748.69  20
   0   1   2 79015.7 3618.89  21
  -1   0   2 84449.9 3864.37  19
   1   0  -2 81638.3 3993.13   2
   0   1   2 100959. 6850.22   4
  -1   1   2 117364. 8620.29   4
  -1   0  -2 90300.3 4500.80  19
   0  -1   2 82097.2 3911.31  19
  -1   0   2 75705.1 3664.52  22
  -1   1  -2 77784.4 2556.77   2
  -1   1  -2 113188. 8079.75   4
   0   1  -2 100063. 6541.46   4
   1  -1  -2 77453.5 3320.97  23
   0   1   2 80909.0 3800.50   3
   1  -1  -2 72269.4 2886.83   2
   1   0  -2 82664.0 3854.80   1
   1   0   2 82468.4 4086.56   1
  -1   0  -2 84909.9 4092.78  22
   0  -1  -2 73510.3 3326.12  19
  -1   1  -2 94052.9 4988.82   3
  -1   1   2 81701.7 3501.15  22
  -1   1  -2 85695.6 3736.67  22
  -1   1  -3 685325. 19402.9   4
  -1   0  -3 803741. 15596.2  22
  -1   0   3 681486. 10906.4  20
   0   1  -3 738720. 13349.6   2
   1  -1  -3 673832. 12915.7   2
   1  -1   3 819690. 17221.2  20
   0   1  -3 821397. 19547.0   4
  -1   1   3 693161. 16989.6  21
  -1   0  -3 875307. 17400.5  19
  -1   0   3 746589. 14199.4  19
   1   0  -3 735881. 14865.2   2
  -1   1   3 781574. 20489.0   4
  -1   1  -3 756192. 14345.0  22
   1   0   3 774485. 13901.0  21
   0   1   3 718491. 13668.0   3
   0   1   3 783140. 14917.5  21
   0  -1   3 810716. 15996.2  19
   1   0   3 788118. 15756.0   1
  -1   1  -3 697978. 15922.3   3
   0   1   3 848003. 20561.9   4
   1  -1   3 764090. 13669.7   1
   0  -1  -3 720465. 13910.9  19
  -1   0   3 771596. 14758.7  22
  -1   1  -3 805984. 12993.2   2
   0  -1   4 306.214 367.251  20
   1   0  -4 406.398 401.720   2
   0   1   4 824.333 524.143   4
  -1   1  -4 270.481 363.802   3
   1  -1   4 438.887 322.108   1
  -1   1   4 1240.18 894.359  21
  -1   1  -4 404.144 409.028  22
   0   1   4 333.120 395.929  21
   1   0   4 554.170 447.408  21
  -1   0  -4 777.261 509.048  22
   0   1  -4 766.367 418.273   2
  -1   1  -4 686.730 401.530   2
   0   1  -4 494.421 542.120   4
   1  -1  -4 719.047 442.457   2
   0   1   4 401.888 245.893   3
   0  -1  -4 464.478 353.896  19
  -1   0   4 642.990 422.649  19
   1   0   4 1012.89 560.974   1
  -1   1   5 699376. 18469.4  21
   1  -1  -5 419213. 12374.6   2
   1   0  -5 602265. 15149.0   2
   0   1  -5 511392. 13825.6   4
  -1   0  -5 562021. 15123.5  22
   1  -1   5 491372. 13164.7   1
   0   1  -5 584045. 13368.9   2
   0   1   5 553052. 14909.3  21
   0  -1   5 457634. 13543.5  20
  -1   0   5 577810. 13814.5  19
   0   1   5 531687. 15217.0   4
   1   0   5 590558. 15717.2   1
  -1   1  -5 594335. 13709.0   3
   1   0   5 567649. 13298.2  21
   0  -1  -5 450038. 13208.6   2
  -1   1  -5 588008. 12830.1   2
  -1   1  -5 534114. 13998.0  22
   0  -1   6 64691.5 5114.96  20
   1  -1  -6 63304.2 4740.63   2
  -1   1   6 105988. 7213.05  21
  -1   1  -6 86712.5 4810.54   2
   0   1  -6 84172.9 5256.41   2
   0   1   6 70589.3 5495.44  21
   1   0   6 81682.6 5107.84  21
  -1   0  -6 81461.0 5978.38  22
   1  -1   6 66373.9 4883.40   1
   1   0  -6 88363.1 5994.07   2
  -1   1  -6 73305.6 5360.91  22
   0  -1  -6 70012.0 5098.37   2
   1   0   6 89261.7 6309.04   1
  -1   0   6 80510.2 5251.06  19
  -1   0  -7 10270.2 2040.68   2
  -1   0  -7 9603.64 2226.75  22
  -1   1  -7 12618.1 1901.05   2
   0   1  -7 11557.6 2255.89   3
   1  -1  -7 11618.5 2153.56   2
   1   0   7 9076.87 1920.02  21
   0   1  -7 9253.74 1876.40   2
   1   0   7 9824.73 2312.78   1
   0  -1  -7 12952.1 2292.76   2
   1   0  -7 11718.3 2416.81   2
  -1   0   7 8728.18 2045.16  21
   0   1   7 9847.75 2200.54  21
   1  -1   7 9646.66 2142.91  23
   0  -1   7 6681.31 1514.68  21
  -1   1  -7 8274.89 1934.55  22
  -1   0   7 9688.21 1999.39  19
  -1   1   7 13694.1 2690.03  21
   0  -1  -8 174813. 9082.32   2
   1  -1   8 125877. 7141.18  23
  -1   1   8 207344. 10727.0  21
  -1   0  -8 155140. 8532.90   2
   1   0  -8 164885. 9831.45   2
   0   1  -8 147774. 8270.72   2
   0   1   8 175654. 9813.35  21
   1   0   8 136888. 7878.43  21
  -1   1  -8 141944. 8961.83  22
  -1   0  -8 143310. 9457.68  22
   0  -1   8 138670. 7451.20  21
   1  -1  -8 174814. 9005.94   2
  -1   0   8 142024. 8860.40  21
  -1   0   8 154612. 8490.90  19
   1  -1  -9 42079.5 2718.87  24
  -1   1  -9 49064.1 3203.70  17
  -1   1  -9 43158.9 3035.42  24
  -1   0  -9 36451.3 4252.06   2
   1  -1   9 44327.4 2874.02  10
  -1   0  -9 52638.4 3584.64  17
   0   1  -9 40218.6 4449.37   2
   0  -1   9 45586.8 5371.47  19
   1   0  -9 41447.8 5169.34   2
   1   0  -9 44211.3 3294.31  14
   1  -1  -9 35303.3 4161.08   2
   0   1  -9 41165.2 2883.39   5
   0   1   9 44235.4 3006.74  18
  -1   1   9 39012.3 4719.68  21
  -1   0   9 34109.9 4549.70  21
  -1   0  -9 44317.6 3193.17  24
  -1   1   9 46529.4 3521.01   7
   1   0  -9 41311.6 2877.76  24
   0   1  -9 45684.4 3314.39  14
   1   0   9 40885.6 2891.65  10
  -1   0   9 38142.3 3197.05   8
  -1   0  -9 40163.4 2939.51  16
   0  -1  -9 42193.5 4664.90   2
   1   0   9 29737.8 3777.65  21
   0   1   9 39938.7 4770.41  21
  -1   0   9 45103.0 3214.13  11
   1   0  -9 44093.8 3149.40   5
  -1   0  -9 34528.0 4811.77  22
  -1   1  -9 36467.4 4766.31  22
  -1   1   9 41516.1 3024.86  18
  -1   1   9 43546.5 3221.09  11
   0   1  -9 35535.1 2483.14  24
   0  -1 -10 26150.3 2219.91  24
   1   0 -10 25196.7 4116.44   2
  -1   0 -10 20882.5 3870.83  22
  -1   0 -10 24404.6 2313.87  16
   0  -1 -10 22482.0 3447.64   2
   1  -1 -10 26348.7 2155.09  24
   1   0 -10 30528.1 2813.02  14
   1  -1 -10 24431.7 3779.77   2
  -1   1  10 29463.8 2832.44   7
   0   1  10 23128.8 3681.88  21
  -1   0 -10 23873.3 3573.90   2
   0  -1  10 27139.8 4205.09  19
   0   1  10 23180.1 2224.06  18
  -1   1 -10 26289.8 2315.83  17
   0  -1 -10 24829.9 2215.77  16
  -1   1 -10 20361.9 3799.84  22
  -1   1  10 23605.8 3813.39  21
   1   0  10 26389.0 2375.53  10
  -1   0 -10 28036.1 2578.13  24
   0   1 -10 27315.6 2619.98  14
   1   0 -10 25806.5 2301.70  24
  -1   0  10 25986.0 2494.47  11
  -1   1  10 27649.5 2506.52  18
  -1   0  10 19594.5 3503.78  21
   0   1  10 31591.1 2752.25  10
   0   1 -10 26656.0 2271.95  24
  -1   1  10 30352.9 2740.34  11
   1  -1  10 27032.4 2249.92  10
  -1   1 -10 26551.2 2403.01  24
   1   0 -10 24831.7 2482.45   5
  -1   1 -11 318796. 8796.33  17
   1  -1 -11 317745. 8229.79  24
   1   0 -11 367116. 10297.2  14
  -1   1  11 347832. 9987.19  11
  -1   0  11 326962. 9478.56  11
   1   0  11 385529. 10351.4  10
   0  -1 -11 338658. 8652.06  24
  -1   1  11 373164. 10414.8   7
   0  -1 -11 315862. 8605.42  16
   1  -1  11 327108. 8526.71  10
   1   0 -11 340759. 9039.58  24
   0   1  11 424617. 10543.4  10
  -1   0 -11 357011. 9710.47  24
  -1   1  11 342639. 9472.13  18
  -1   0 -11 337452. 9229.72  16
   0   1 -11 320156. 8431.50  24
   0   1  11 282025. 8544.47  18
   0   1 -11 309191. 9538.53  14
  -1   1 -11 339936. 9214.67  24
   0   1  12 744.350 451.505  18
   0  -1 -12 1108.46 519.726  16
   1   0 -12 907.737 506.459  14
  -1   0 -12 1842.11 636.234  16
  -1   1  12 1794.63 679.218   7
   0   1  12 2025.56 705.278  10
  -1   1 -12 671.732 340.144  17
   0   1 -12 1154.67 458.360  24
   1  -1 -12 1233.98 473.188  24
  -1   1  12 1422.13 578.439  18
   1   0 -12 1077.99 491.216  24
  -1   0 -12 1399.19 615.480  24
   0  -1 -12 934.224 435.666  24
   1  -1  12 706.709 409.297  10
  -1   0  12 943.320 412.634  10
   1   0  12 1864.07 709.474  10
  -1   1 -12 1217.43 530.756  24
   0  -1  12 1896.03 651.341  10
   0  -1 -13 151118. 5105.73  16
   1   0 -13 155789. 5262.27  24
   0  -1  13 166175. 5516.11  10
  -1   0 -13 163045. 5724.88  24
  -1   0 -13 154992. 5276.85  16
  -1   1  13 164107. 5875.26   7
  -1   0  13 162516. 5853.93   7
   0   1 -13 140159. 4752.24  24
   1  -1 -13 158485. 5151.82  24
  -1   0  13 152218. 4768.18  10
   1   0  13 186063. 6167.79  10
   0  -1 -13 141353. 4783.99  24
  -1   1 -13 153854. 5314.07  24
  -1   1  13 151062. 5535.56  18
   0   1  13 179497. 5707.55  10
   1  -1  13 154315. 5033.34  10
   0   1  13 158897. 5950.62   9
   0   1  14 34727.4 2016.95  10
   0   1  14 28520.1 2078.70   9
   1  -1  14 30046.0 1905.06  10
  -1   1 -14 33757.4 2143.36  24
  -1   0 -14 38990.0 2377.33  16
   0   1 -14 29381.4 1830.40  24
   0  -1 -14 31211.9 2000.23  16
   1   0 -14 28769.9 1619.38  16
  -1   1  14 31972.2 2187.36   7
  -1   0  14 34393.0 2331.77   7
   0  -1 -14 29071.6 1840.22  24
   1   0 -14 35350.6 2242.30  24
  -1   0 -14 33097.4 2185.17  24
   1  -1 -14 35562.5 2165.01  16
   1   0  14 40396.9 2453.74  10
  -1   1  14 31492.7 2117.66  18
  -1   0  14 30967.2 1705.51  10
   1  -1 -14 34207.9 2022.80  24
   0  -1  14 36666.2 2196.82  10
   1  -1 -15 5194.58 683.270  16
  -1   1  15 5861.52 892.315   9
   0  -1 -15 5676.28 720.886  16
  -1   1  15 4859.67 733.338   7
  -1   0 -15 5907.44 748.257  16
   1   0  15 6276.98 828.901  10
   1  -1 -15 4852.77 614.783  24
   1   0 -15 5789.59 757.380  24
   0   1 -15 3981.83 696.536  13
   0   1  15 4099.27 587.973   9
   0  -1  15 5544.37 708.070  10
  -1   0  15 6025.20 821.454   7
  -1   1 -15 5371.68 701.277  24
   0  -1  15 3898.90 547.768   7
  -1   0 -15 5072.14 719.254  24
   1  -1  15 6121.43 800.430  10
   0   1 -15 4437.07 585.858  24
  -1   2   0 917411. 22335.2   3
  -2   1   0 962460. 20003.7  22
   2  -1   0 999837. 19913.5   1
  -1  -1   0 964352. 20745.1  19
  -1   2  -1 491.801 867.886   4
   2  -1  -1-110.415 211.660   2
   2  -1   1-656.967 494.381   1
  -2   1  -1-132.666 391.934  22
   1   1  -1-124.358 282.395   1
  -2   1   1-90.1232 270.669  22
  -1   2   1 1224.74 1773.10   4
  -1   2  -1-165.105 512.456   3
  -1  -1   1-90.9883 336.413  19
   1   1   1 451.425 393.025   1
  -1   2   1 610.909 740.078   3
   2  -1  -1 325.116 360.084   1
  -1  -1  -1-33.8662 208.580  19
   1   1  -2 241733. 9742.56   2
   2  -1  -2 238000. 8545.53   2
   1   1   2 284464. 10445.5   1
  -1   2  -2 326221. 18863.7   4
  -1   2   2 339414. 19785.7   4
   1  -2   2 209027. 8748.90  20
  -1  -1  -2 266505. 10710.1  19
  -2   1   2 246440. 9558.46  22
  -1  -1   2 241451. 10017.7  19
  -1   2   2 216814. 9464.91   3
  -1   2  -2 234792. 11378.3   3
  -2   1  -2 241079. 9625.18  22
   2  -1   2 253692. 9675.84   1
   2  -1  -2 252614. 9610.49   1
  -2   1  -3 208.623 264.529  22
   2  -1  -3 60.8922 306.160   2
   1   1  -3 774.259 571.466   2
   1  -2   3-879.560 556.668  19
  -1   2   3 133.383 190.563  21
  -1  -1  -3 28.1374 297.552  19
  -1   2   3 53.4162 300.424   3
   2  -1   3 99.5962 213.705   1
  -2   1   3-36.9198 265.854  22
   1   1   3-101.202 275.566   1
  -2   1   3 974.547 765.022  21
  -1  -1   3 133.421 269.718  19
  -1   2   3 553.086 1357.73   4
  -1   2  -3 469.243 549.674   3
   1  -2   3 103.683 199.573  20
   2  -1  -3 305.927 485.822   1
  -1   2  -3-245.102 551.474   4
   2  -1  -4 2223.24 894.221   2
  -2   1  -4 1821.58 894.227  22
   1   1  -4 2299.28 1018.74   2
   1  -2   4 1607.39 875.520  20
   1   1   4 2909.13 1217.35   1
   1  -2   4 2286.24 1113.64  19
  -1  -1   4 1859.65 957.262  19
  -1   2   4 1785.05 752.171  21
  -2   1   4 2104.07 968.321  22
  -1   2   4 1927.18 896.393   3
   2  -1  -4 2659.84 1122.40   1
   2  -1   4 2291.83 1020.60   1
  -1   2  -4 1835.35 1308.30   4
  -1  -1  -4 1889.50 1081.76  19
  -1   2   4 1903.57 1588.47   4
  -1   2  -4 1487.35 1015.01   3
  -2   1   4 1550.52 1167.29  21
   1   1  -5-393.557 492.302   2
  -1   2   5 441.080 270.038  21
  -2   1  -5-165.486 594.299  22
   1  -2   5 306.777 581.146  20
   2  -1   5-243.557 486.337   1
  -2   1   5 900.460 823.362  21
  -1   2  -5-352.141 609.181   4
   1   1   5-280.986 452.373   1
  -1   2   5 387.002 704.965   4
   1  -2   5-361.855 497.952  19
  -1  -1   5-113.508 455.069  19
  -1  -1  -5-768.278 722.635  19
   2  -1  -5 655.005 624.569   1
  -1   2  -5 596.685 774.093   3
   2  -1  -5 241.286 426.095   2
  -1   2   6 236217. 11194.6  21
  -1   2  -6 323713. 10666.5  13
  -2   1   6 249775. 9218.72   8
   2  -1  -6 300404. 14069.5   1
  -1   2  -6 233626. 8354.41  17
   1   1  -6 219060. 7806.28  14
   1   1   6 279276. 13071.7  21
  -1   2   6 307910. 9927.90   9
  -2   1  -6 293478. 13973.5  22
   2  -1   6 305188. 13674.2   1
   1   1  -6 320578. 14298.2   2
  -1   2   6 311503. 10197.6   7
  -2   1  -6 291192. 8779.49  16
   2  -1  -6 293438. 12840.6   2
  -2   1   6 321259. 9183.04  11
   1   1   6 332292. 9445.63  10
  -2   1   6 270580. 13505.7  21
  -1   2  -6 225052. 12144.7   3
   1  -2   6 217438. 11815.9  20
   1   1   6 213521. 12032.2   1
  -1  -1   6 273721. 13271.6  19
  -2   1   6 329968. 9247.30  18
  -2   1  -6 322810. 9469.14  17
   1   1  -6 318949. 8887.43   5
  -2   1  -7 109.782 313.229  24
  -1   2   7 360.935 530.880   9
   1   1  -7 139.310 323.439   5
  -2   1   7-208.882 427.264   8
   1   1  -7-234.669 378.110  14
  -1  -1  -7-105.790 209.105  16
  -1   2   7 162.104 530.936  12
  -1   2  -7 103.276 606.653  13
  -1   2   7-432.640 355.876  18
  -2   1  -7 349.261 436.735  16
  -2   1  -7 146.009 400.969  17
   1   1  -7-770.117 775.975   2
  -2   1   7-324.934 366.935   7
  -2   1  -7 642.184 712.555  22
   2  -1   7 430.016 609.370   1
   1   1   7-42.8550 485.579  10
   1   1   7-2.74656 350.777  21
  -1   2   7-1513.52 972.400  21
  -1   2   7 146.822 502.555   7
  -2   1   7-80.9509 241.292  18
  -2   1   7-1246.75 955.590  21
  -1  -1   7 66.5251 525.727  19
  -2   1   7 158.289 233.547  11
   2  -1  -7 1124.49 874.221   2
  -1   2  -7 250.966 276.186  17
   1   1  -8 494420. 12790.6  14
  -1   2   8 387020. 13151.4   9
  -2   1   8 602296. 15203.9   8
  -1   2   8 509197. 19008.7  21
  -1  -1  -8 466849. 11925.6  16
   1   1  -8 554080. 11205.0  24
  -2   1  -8 406421. 11911.0  16
  -1   2  -8 468916. 14381.2  13
  -1   2   8 483763. 14332.1   7
   2  -1  -8 455341. 18714.5   2
  -2   1   8 541941. 13561.2   7
  -1   2  -8 585845. 13828.8  17
  -2   1  -8 458190. 20305.9  22
   2  -1   8 452704. 18832.9   1
   1   1  -8 412923. 18696.6   2
  -2   1   8 566175. 14407.2  11
  -1  -1   8 397436. 17373.2  21
  -2   1  -8 467969. 12770.5  24
  -1  -1   8 447322. 18988.4  19
   1   1   8 483364. 13192.9  10
   2  -1   8 530754. 12589.5  10
  -1   2   8 607220. 12938.3  18
   1  -2   8 463523. 19058.3  19
  -2   1   8 535159. 19676.9  21
  -2   1  -8 602246. 13325.7  17
   1   1  -8 559825. 13586.5   5
  -2   1   8 554503. 13376.4  18
  -1  -1  -8 437082. 17944.6   2
   1   1   8 430707. 18089.1  21
  -2   1  -9 340.056 410.817  16
  -1   2   9 49.6721 556.868   9
  -1   2   9 420.094 716.515   7
  -2   1   9 428.470 488.971   7
   2  -1   9 395.857 520.095  10
   1   1  -9-266.831 272.043   5
  -2   1   9 262.245 437.682   8
   1   1  -9 287.971 340.569  24
   1   1  -9-9.46396 398.897  14
  -1   2  -9 215.179 428.049  13
  -2   1   9 697.057 583.318  11
   2  -1  -9 705.594 500.527  24
  -1   2   9 253.768 230.815  18
  -2   1   9 58.2876 285.498  18
   1   1   9-180.169 343.950  10
  -1  -1  -9 250.716 372.943  16
  -2   1  -9 1885.38 619.898  17
  -1   2  -9-398.046 430.912  17
  -2   1  -9 69.3860 423.526  24
  -1   2  10 105992. 6640.19   9
   1  -2  10 88879.2 3992.80  10
   1   1 -10 99348.1 5268.15  14
  -1  -1 -10 111923. 5475.85  16
  -1   2 -10 116518. 6331.51  13
  -1   2  10 113928. 6144.29   7
  -2   1 -10 102423. 5193.87  16
  -2   1  10 93363.3 5013.00   7
   1   1 -10 81373.8 3645.21  24
   2  -1 -10 99078.4 4814.87  24
  -2   1  10 102035. 5744.95  11
  -1   2 -10 98872.8 4845.52  17
   1   1  10 119442. 5837.56  10
   2  -1  10 108203. 5106.04  10
  -1   2  10 87597.1 4314.52  18
  -2   1  10 99037.1 5041.91  18
  -2   1 -10 93605.5 4943.22  17
   1   1 -10 88215.3 5211.28   5
  -2   1 -11 249.937 304.270  16
  -1   2  11 938.278 732.445   9
   1  -2 -11 354.538 335.873  16
   1   1 -11 88.1528 244.592   5
   1   1 -11 450.374 419.990  14
   1   1 -11 6.42945 130.490  24
  -1   2 -11-272.761 375.102  13
  -1   2  11 381.766 436.620   7
  -2   1  11 158.983 300.926  12
  -2   1  11 428.518 402.971   7
   2  -1 -11 868.653 530.230  24
  -1  -1 -11 242.280 234.305  16
  -2   1  11 345.632 278.101  11
  -1   2  11 61.3505 189.827  18
  -2   1  11 1165.34 539.337  18
   1   1  11 301.347 470.813  10
   2  -1  11 175.490 330.901  10
   1  -2  11 73.8301 197.271  10
  -2   1 -11 33.1275 269.272  17
  -1   2 -11 7.20253 214.845  17
  -1  -1 -12 5300.50 986.216  16
   1  -2 -12 4285.75 741.035  16
  -1   2  12 5159.21 1271.45   9
   1   1 -12 3722.65 664.345  24
   1   1 -12 5251.54 1054.63  14
  -1   2 -12 5885.56 1129.58  13
  -1   2  12 4546.26 1002.91   7
  -2   1  12 4122.20 923.039  12
   2  -1 -12 5348.00 910.690  24
  -2   1  12 5544.94 1124.40  11
  -2   1  12 5471.53 1004.51   7
  -2   1 -12 5280.85 912.842  16
   2  -1  12 5680.11 960.579  10
  -1   2  12 4964.47 865.325  18
  -2   1  12 4579.02 866.408  18
   1  -2  12 4785.09 753.746  10
   1   1  12 5697.65 1030.86  10
  -1   2 -12 4814.43 849.202  17
  -2   1 -13-47.6794 124.055  16
  -1   2  13-77.1231 242.487   9
  -1  -1 -13 196.226 155.064  16
   1  -2 -13 314.002 206.505  16
   1   1 -13 141.976 218.226  14
  -1   2 -13 587.422 316.223  13
  -1   2  13-563.077 345.921   7
  -2   1  13 260.850 269.792   7
   1   1 -13 398.944 213.710  24
   2  -1 -13 93.5342 136.633  24
  -1   2  13 422.560 227.860  18
  -2   1  13 47.7618 187.695  18
  -1  -1  13 164.319 183.860  10
   1   1  13-244.607 270.459  10
   2  -1  13-208.111 259.976  10
   1  -2  13 0.35307 120.560  10
  -1  -1 -14 121477. 3381.56  16
  -2   1  14 87218.8 2660.74   9
   1  -2 -14 104438. 2791.67  16
   2  -1 -14 122886. 3114.86  16
   1   1  14 96865.7 3131.60   5
  -1   2 -14 102190. 3081.55  13
  -2   1  14 115441. 3400.29   7
  -1  -1  14 116500. 3449.17   7
   2  -1 -14 116917. 3100.76  24
   2  -1  14 110669. 2984.29  10
  -1   2  14 123323. 3710.82   9
   1   1  14 110873. 2998.94  10
   1  -2  14 93519.6 2470.12  10
  -1  -1  14 116615. 2964.78  10
   0   2   0 228068. 11753.4   3
   0   2   0 147440. 14356.7   4
   2  -2   0 174395. 9341.43  23
  -2   0   0 193097. 8601.06  22
  -2   0   0 241912. 11111.1  19
   2   0   0 213380. 9591.60   1
   0  -2   0 214307. 8878.03  19
  -2   0  -1 21594.9 2798.32  22
  -2   0   1 20524.9 2730.35  22
   0   2  -1 28178.3 5936.99   4
  -2   0  -1 24843.7 3586.49  19
   2  -2   1 23573.3 3559.48  23
   0   2   1 18554.9 5188.04   4
   2   0  -1 23847.2 3135.78   1
   0  -2   1 23728.2 2965.04  19
   0   2   1 23870.9 3499.83   3
  -2   0   1 27555.4 3660.60  19
   0   2  -1 27942.5 4371.16   3
   2   0   1 22271.7 3064.80   1
  -2   0  -2 49812.5 4574.43  22
   0  -2   2 51668.5 4664.67  19
   0   2  -2 54945.6 7967.65   4
   0   2   2 66673.5 9295.67   4
  -2   0   2 43618.5 4102.69  22
   2   0  -2 49555.3 4520.12   1
   2   0  -2 47498.3 4597.92   2
  -2   0  -2 54308.2 5490.46  19
   0   2  -2 54960.8 6565.59   3
   2   0   2 49544.5 4787.49   1
  -2   0   2 56600.3 5339.37  19
   0   2   2 42745.1 4509.54   3
   2  -2   2 50276.7 5632.89  23
   2   0   3 494321. 16562.0   1
   2  -2   3 415303. 17566.5  23
   0   2  -3 492596. 22941.7   4
   0   2   3 541438. 25137.4   4
   2   0  -3 486779. 15470.7   1
  -2   0  -3 483852. 15761.6  22
   2   0  -3 503968. 16384.2   2
   0  -2   3 512511. 16536.1  19
  -2   0   3 404173. 14077.3  22
  -2   0  -3 528257. 18724.9  19
   0   2  -3 413517. 19588.5   3
  -2   0   3 509254. 16530.1  19
  -2   0  -4 1148.31 546.204  16
   0   2   4 783.324 459.682   9
   2   0  -4 596.460 623.307   2
  -2   2  -4 310.394 639.077  15
   2   0  -4 1165.10 765.658   1
   0   2  -4 243.663 556.076  15
  -2   2   4-167.960 392.866   7
   2   0  -4 1043.86 538.815  14
  -2   0   4 738.887 437.958   8
  -2   0  -4 754.499 464.454   8
  -2   2  -4 1633.64 680.585  13
  -2   2   4 816.022 768.428  12
   0   2  -4-627.361 774.388   4
   0   2   4 223.490 785.417   4
  -2   0  -4 949.828 802.054  22
  -2   2   4 923.563 531.596  11
   0  -2   4 455.077 636.527  20
   0  -2   4 847.348 693.923  19
  -2   0   4 99.0249 434.296  19
   2   0   4 1370.73 886.972   1
   2   0   4 1181.07 544.081  10
  -2   2   4 1563.29 586.565  18
   0   2  -4 1370.77 1268.98   3
  -2   2  -4 1157.06 837.296  17
   2  -2   4 277.003 469.221  23
   0   2  -4 587.327 402.966  17
   0   2   5 460264. 11558.2   9
  -2   2  -5 460940. 12484.2  15
   0   2  -5 459992. 13779.2  15
  -2   0   5 414397. 10980.0   8
   0   2   5 378929. 9819.73   5
   2   0  -5 398190. 10196.6  14
  -2   0  -5 334976. 9344.85   8
   2  -2  -5 411899. 14791.4   1
   2  -2   5 311444. 16460.6  23
  -2   2  -5 462971. 11929.6  13
   0   2  -5 278322. 15380.6   4
   0   2   5 337372. 17637.3   4
   0   2  -5 294902. 10444.5  13
  -2   2   5 418044. 11743.9   7
   2   0   5 390290. 16390.6   1
   2   0  -5 358428. 14831.7   1
  -2   2   5 242481. 10772.2  12
  -2   0  -5 418424. 10883.1  16
  -2   2  -5 332500. 9998.61   6
   2   0  -5 422882. 16843.0   2
   0   2   5 365483. 14537.4  21
   0  -2   5 318289. 13971.4  20
   0  -2   5 364249. 15444.5  19
  -2   0  -5 371316. 15664.7  22
   2   0   5 451515. 11006.8  10
  -2   2   5 340821. 9551.33  11
   0   2  -5 366989. 18875.5   3
  -2   2   5 368085. 10152.5  18
  -2   0   5 359385. 14636.1  19
  -2   2  -5 449876. 12249.8  17
   0   2  -5 394398. 10416.5  17
   2   0  -5 397995. 9751.16   5
   0   2   6 80497.4 4806.95   9
  -2   0  -6 68780.7 4411.43  16
  -2   2  -6 71654.7 4602.73  15
   0   2  -6 68989.1 4808.39  15
  -2   0   6 65846.3 4354.09   8
   2  -2  -6 64487.7 6112.89   1
   2   0  -6 71820.2 4399.36  14
  -2   0  -6 49977.3 3383.63   8
   2   0   6 59256.8 6653.97   1
  -2   2   6 51146.4 3894.31   9
  -2   2  -6 70279.6 4529.53  13
   2   0  -6 43414.2 5294.12   1
  -2   2   6 66575.0 4769.56   7
  -2   2   6 72698.6 5540.65  12
   2  -2   6 55002.3 6370.34  23
  -2   2   6 58956.5 3764.86  11
  -2   0  -6 56593.7 6359.42  22
   2   0  -6 68211.0 7155.93   2
   0  -2   6 52987.1 5903.23  20
   0  -2   6 52427.8 6086.39  19
   2   0   6 74028.3 4454.84  10
   0   2  -6 54237.2 7154.28   3
   0   2   6 57172.1 5963.07  21
  -2   2   6 58441.2 3885.06  18
   2   0  -6 57538.9 3607.20   5
  -2   2  -6 70140.1 4475.86  17
   0   2  -6 67263.5 4166.88  17
   0   2   7 11681.9 1978.59   9
  -2   2   7 9566.65 1759.79   9
  -2   2   7 7602.02 1695.84   7
  -2   0   7 9465.18 1709.82   8
   0   2  -7 11774.8 1801.71  14
   2   0  -7 10892.5 1794.86  14
  -2   0  -7 7363.48 1262.13   8
  -2   2  -7 9300.00 1622.17  13
  -2   2   7 15875.9 2668.52  12
  -2   2   7 8043.47 1423.80  11
  -2   0  -7 10645.5 1836.03  16
   2   0   7 10862.7 1786.56  10
  -2   2   7 8898.56 1530.27  18
  -2   2  -7 10627.7 1715.90  17
   2   0  -7 9661.15 1580.60   5
   0   2  -7 8018.87 1278.35   5
   0   2  -7 11008.6 1769.59  17
   0   2   8 112937. 6070.29   9
  -2   0  -8 110038. 6005.96  16
  -2   2   8 71068.1 5138.38   9
  -2   0   8 121126. 6537.05   8
   2   0   8 121223. 5566.33   5
   0   2  -8 143879. 6188.54  14
   2   0  -8 131406. 6506.17  14
  -2   2  -8 129333. 6246.43  13
  -2   2   8 84863.4 5849.06   7
  -2   2   8 193391. 8549.39  12
  -2   0   8 121612. 5428.46  11
  -2   2   8 96416.8 5364.97  11
   2   0   8 124376. 6258.44  10
  -2   2   8 98838.8 5343.15  18
  -2   2  -8 137988. 5930.86  17
   0   2  -8 101354. 4598.34   5
   2   0  -8 110510. 5300.60   5
   0   2  -8 122020. 5919.68  17
   0   2   9 32935.4 3179.46   9
  -2   2   9 24758.2 2995.25   9
  -2   0   9 30097.2 3163.76   8
   2   0   9 31434.7 2700.96   5
   0   2  -9 30464.6 2699.88  14
   2   0  -9 28142.2 2933.10  14
  -2   2  -9 36983.1 3119.21  13
  -2   2   9 35695.5 3596.25   7
  -2   2   9 41094.5 3681.79  12
   2   0  -9 27336.4 2513.60  24
  -2   0   9 27135.1 2421.51  11
  -2   2   9 31399.9 2925.90  11
   0   2  -9 29956.4 2779.96  17
   2   0   9 33469.0 3117.41  10
  -2   2   9 32737.9 2953.18  18
   0   2  -9 24482.8 2085.70   5
   2   0  -9 28990.2 2592.76   5
  -2   2  -9 25670.9 2489.29  17
  -2   0  -9 33203.8 3195.15  16
   0   2  10 24803.6 2561.30   9
  -2   0 -10 22164.9 2435.37  16
  -2   2  10 22130.5 2576.65   9
  -2   0  10 18774.3 2417.93   8
   2   0  10 20955.7 2075.27   5
   0   2 -10 15801.3 1831.36  14
   2   0 -10 22108.6 2473.16  14
  -2   2  10 22594.4 2762.64   7
  -2   2  10 22789.3 2436.38  12
  -2   0  10 18722.3 1944.41   7
  -2   0  10 16769.0 1782.78  11
   2   0 -10 21854.5 2101.03  24
  -2   2  10 20061.5 2183.68  11
   2   0  10 24059.9 2523.09  10
  -2   2  10 19923.3 2197.05  18
   2   0 -10 19094.9 1983.68   5
  -2   2 -10 21589.5 2079.54  17
   0   2  11 260729. 7592.56   9
  -2   0 -11 280238. 8211.37  16
  -2   2  11 276449. 8565.81   9
   2   0 -11 270564. 8214.78  14
   0   2 -11 289560. 9007.29  13
  -2   2  11 281572. 9082.73   7
  -2   2  11 265263. 7571.59  12
  -2   0  11 225904. 6766.16   7
   2   0 -11 260138. 7105.08  24
  -2   2  11 238860. 7267.67  11
   2   0  11 289528. 8241.26  10
  -2   2  11 260515. 7604.41  18
  -2   2 -11 213421. 6513.89  17
  -2   0 -12 1499.70 522.734  16
  -2   2  12 1517.70 480.379   9
   2   0 -12 1072.00 415.237  14
   0   2  12 1493.78 556.529   5
   0   2 -12 1223.09 492.705  13
  -2   2  12 1454.91 571.081   7
   2   0 -12 1352.84 423.596  24
  -2   0  12 1180.66 465.596   7
  -2   2  12 783.794 392.416  18
   2   0  12 1214.03 486.746  10
   0  -2  12 1422.63 448.951  10
  -2   2 -12 792.288 305.351  17
  -2   0 -13 115426. 3588.86  16
  -2   2  13 110180. 3512.14   9
   2  -2 -13 108452. 3163.44  16
   0   2  13 102060. 3263.14   5
   0  -2  13 109409. 3104.62  10
   0   2 -13 116679. 3861.21  13
  -2   2  13 118852. 3981.04   7
  -2   0  13 99128.7 3196.22   7
   2   0 -13 106746. 3127.40  24
   2   0  13 121564. 3608.96  10
  -2   2  13 113948. 3502.85  18
  -2   2 -13 101398. 3271.75  17
   2   1   0 151971. 5739.48   5
   1   2   0 135923. 5316.95   5
  -2   3   0 144873. 5344.21   9
  -2   3   0 165846. 8288.07  15
  -1   3   0 151550. 8201.01  15
  -1   3   0 203731. 8438.05  17
  -3   1   0 193500. 7649.66   8
  -2  -1   0 150494. 5884.83   8
  -1  -2   0 146253. 5179.58   8
  -3   2   0 149651. 5833.30  18
   2   1   0 153941. 5917.48  14
   3  -1   0 151659. 5594.06  14
  -2   3   0 138699. 5579.01  13
  -1   3   0 190782. 7824.30  12
  -2   3   0 167598. 6555.00  12
  -2   3   0 148479. 8606.64   6
  -3   1   0 180287. 6494.04  11
  -3   2   0 164277. 6265.83  11
  -3   2   0 226590. 10327.7   6
  -3   1   0 211151. 9671.51   6
  -3   1   0 141938. 5473.46  18
  -1   3   0 151392. 5908.58   9
  -3   1  -1 16796.0 2070.32  16
   2   1  -1 18661.9 1919.87   5
   1   2  -1 16428.5 1731.63   5
   2   1   1 18766.2 1939.60   5
   1   2   1 15587.1 1742.08   5
  -2   3   1 20198.0 2649.14  15
  -2   3  -1 14001.1 2413.44  15
  -1   3   1 20571.4 2773.13  15
  -1   3  -1 11883.8 2353.78  15
  -3   1   1 23333.9 2641.56   8
  -2  -1   1 16506.5 1883.30   8
  -2  -1  -1 18406.0 2003.41   8
  -1  -2  -1 18967.1 1831.46   8
   2   1  -1 17837.6 1949.14  14
   2   1   1 20309.3 2059.80  14
   3  -1  -1 18714.5 1875.56  14
   3  -1   1 18039.2 1873.79  14
  -2   3   1 23055.2 2261.42  13
  -2   3  -1 17813.2 1923.75  13
  -1   3  -1 16496.7 1706.90  13
  -1   3   1 24546.7 2874.91  12
  -2   3  -1 18142.6 2005.93  12
  -2   3   1 20425.5 2322.07  12
  -2   3  -1 20735.4 2993.27   6
  -3   1   1 18861.8 1913.61  11
  -3   2   1 20093.8 2127.06  11
  -3   1  -1 21149.9 2154.65  11
  -3   2  -1 19273.2 2061.06  11
  -3   2  -1 24618.5 3134.85   6
  -3   2   1 27132.8 3716.71   6
  -3   1  -1 22982.3 2920.30   6
  -3   1   1 25174.5 3553.76   6
  -2   3   1 13475.1 2584.41   6
  -3   2   1 17717.9 1929.85  18
  -3   1   1 18085.2 1871.80  18
  -3   2  -1 17567.1 1908.19  18
  -2   3  -1 16281.2 1719.11   9
  -1   3  -1 16904.8 1922.48   9
  -1   3  -1 23882.6 2833.33  17
  -1   3   1 25511.1 2901.75  17
  -1   3   1 18416.6 2010.40   9
  -2   3   1 17695.0 1801.94   9
  -3   1  -2 37023.9 3071.36  16
   2   1  -2 40705.2 2899.70   5
   1   2  -2 35819.7 2620.47   5
   2   1   2 41492.2 2996.42   5
   1   2   2 36915.7 2770.32   5
  -2   3   2 38514.6 3421.36  15
  -2   3  -2 34431.9 3877.46  15
  -1   3   2 37583.9 3468.04  15
  -1   3  -2 36563.2 4056.98  15
  -3   1   2 44593.5 3653.03   8
  -2  -1   2 38264.1 3010.04   8
  -2  -1  -2 40807.3 3095.70   8
  -1  -2  -2 37939.6 2733.48   8
   2   1  -2 37656.1 2875.83  14
   3  -1  -2 36337.8 2629.35  14
   2   1   2 41298.8 2950.38  14
  -2   3  -2 35691.3 2777.57  13
  -2   3   2 34740.9 3290.50   7
  -1   3  -2 37704.6 2705.52  13
  -1   3   2 49482.7 4184.20  12
  -2   3  -2 37396.8 2803.85  12
  -2   3   2 42803.0 3599.60  12
  -3   2   2 43229.9 3550.35  12
  -2   3  -2 42657.3 4027.72  17
  -2   3  -2 36541.1 3836.76   6
  -2   3   2 42728.6 4508.40   6
  -3   1   2 38026.1 2822.13  11
  -3   2   2 35942.7 2747.22  11
  -3   1  -2 44480.5 3163.65  11
  -3   2  -2 45105.1 3918.79   6
  -3   2  -2 38649.8 2991.32  11
  -3   2   2 35874.5 4529.91   6
  -3   1  -2 44821.4 3777.44   6
  -3   1   2 44026.9 4816.77   6
  -3   2   2 37383.8 2881.47  18
  -3   1   2 37410.5 2715.31  18
  -2   3  -2 37112.6 2625.87   9
  -1   3  -2 38052.9 2881.31   9
  -1   3  -2 49522.9 4008.98  17
  -1   3   2 43015.5 3733.08  17
  -1   3   2 36007.3 2885.60   9
  -2   3   2 36067.1 2649.91   9
   1   2  -2 34088.5 2755.68  17
   2   1  -3 361845. 9653.87   5
  -3   1  -3 351699. 10280.2  16
   1   2  -3 343308. 9026.20   5
   2   1   3 373132. 9945.40   5
   1   2   3 354937. 9534.32   5
  -2   3   3 328386. 9946.83  15
  -2   3  -3 398842. 13226.6  15
  -1   3   3 327504. 9918.04  15
  -1   3  -3 398244. 13445.7  15
  -3   1   3 374035. 11221.8   8
   1   2   3 403140. 14231.0  15
  -2  -1   3 364033. 9958.62   8
  -2  -1  -3 379554. 10351.7   8
   2   1  -3 367421. 10126.0  14
  -1  -2  -3 371589. 9668.37   8
   3  -1  -3 343055. 8943.35  14
   2   1   3 375792. 9650.64  14
  -2   3   3 309729. 7454.57  13
  -2   3  -3 327067. 9426.32  13
  -2   3   3 337856. 10969.4   7
  -1   3  -3 329749. 9186.86  13
  -2   3  -3 342977. 8973.58  12
  -1   3   3 381019. 12369.6  12
  -2   3   3 406312. 12082.5  12
  -3   2   3 431574. 12527.6  12
  -2   3  -3 292770. 10898.6   6
  -2   3   3 388649. 13378.1   6
  -3   1   3 371807. 9714.88  11
  -3   2   3 346416. 9496.28  11
  -3   2  -3 374202. 11144.5   6
  -3   1  -3 399048. 10364.3  11
  -3   2  -3 380042. 10224.2  11
  -3   2   3 327434. 14009.9   6
  -3   1  -3 375515. 10683.6   6
  -3   1   3 288019. 12863.4   6
   2   1   3 318809. 9342.69  10
  -3   2   3 352506. 9713.56  18
  -3   1   3 354863. 9265.42  18
  -1   3  -3 332413. 9692.63   9
  -2   3  -3 429584. 13208.9  17
  -1   3  -3 411822. 11950.0  17
   1   2  -3 328904. 9083.94  17
  -1   3   3 356670. 9924.04   9
  -2   3   3 344625. 9236.10   9
  -3   2  -4 408.240 493.070  16
  -1   3   4 730.857 514.217   9
  -3   1  -4 1344.18 691.225  16
  -2   3   4 1185.17 573.768   9
  -2   3  -4 212.005 406.945  15
  -1   3  -4 919.875 733.238  15
   2   1  -4 896.736 541.758   5
   1   2  -4 613.421 278.104   5
  -3   1   4 742.841 615.815   8
   2   1   4 1041.73 554.260   5
   1   2   4 1171.29 597.482   5
   2   1  -4 484.419 407.943  14
  -2  -1   4 720.735 489.539   8
   3  -1  -4 753.156 431.630  14
  -2  -1  -4 1341.95 669.289   8
  -1  -2  -4 531.251 430.034   8
  -2   3  -4 777.122 481.698  13
  -1   3  -4 1278.83 646.040  13
  -1   3   4 552.046 809.910  12
  -2   3   4 404.062 605.393   7
  -2   3   4 411.073 428.678  12
  -3   2   4 768.849 740.208  12
  -3   1   4 882.162 525.266  11
  -3   2   4 441.909 443.423  11
  -3   1  -4 823.535 392.828  11
  -3   2  -4 738.257 441.976  11
  -2   3   4 1090.57 515.614   6
  -3   2  -4 1304.40 742.558   6
  -3   2   4 1689.51 1167.31   6
  -3   1   4 1700.89 1226.35   6
   2   1   4 775.388 529.857  10
  -3   2   4 943.341 551.776  18
  -3   1   4 759.715 463.484  18
  -2   3  -4 1392.90 732.856  17
  -1   3  -4 824.187 585.600  17
   1   2  -4 650.955 372.086  17
  -3   2  -5 220330. 7836.44  16
  -3   1  -5 282435. 9269.04  16
   2   1   5 304808. 8972.26   5
  -2   3  -5 303883. 9976.63  15
   1   2   5 292850. 8822.60   5
  -1   3  -5 281392. 9648.97  15
  -3   1   5 231639. 9021.63   8
   1   2  -5 263802. 10414.7  15
  -2  -1   5 271592. 8453.02   8
  -2  -1  -5 283704. 9012.76   8
   2   1  -5 253712. 8422.90  14
   3  -1  -5 288399. 8290.54  14
  -2   3  -5 255911. 8433.41  13
  -1   3  -5 352497. 10740.5  13
  -2   3   5 270191. 9655.58   7
  -1   3   5 304975. 10336.4  12
  -2   3   5 163143. 8067.52  12
  -3   2   5 141927. 7878.35  12
  -3   1   5 275098. 8499.98  11
  -3   2   5 286642. 8818.76  11
  -3   1  -5 304231. 9046.44  11
  -3   2   5 391721. 13312.2   6
  -3   2  -5 289144. 9078.52  11
  -3   1   5 378937. 12967.7   6
   2   1   5 271163. 8709.54  10
  -3   2   5 284192. 8755.56  18
  -3   1   5 281680. 8226.56  18
  -3   2  -5 193618. 7617.96  17
  -2   3  -5 325615. 10637.4  17
  -1   3  -5 240906. 8774.45  17
   1   2  -5 281145. 8082.60  17
  -1   3   5 291717. 9271.75   9
   2   1  -5 276171. 8345.60   5
  -2   3   5 281067. 8595.76   9
   1   2  -5 255132. 7705.31   5
  -3   2  -6 23449.9 2296.79  16
  -3   1  -6 43134.0 3456.83  16
   2   1   6 45942.7 3349.67   5
  -2   3  -6 43070.9 3264.27  15
  -3   1   6 34641.7 3256.07   8
  -1   3  -6 43782.5 3291.61  15
   1   2   6 45735.4 3375.85   5
  -2  -1   6 40130.1 3028.25   8
   1   2  -6 40528.0 3603.52  15
   1   2  -6 47511.3 3346.44  14
   2   1  -6 36125.8 2991.03  14
  -2  -1  -6 39705.1 3154.25   8
   3  -1  -6 43643.4 3015.16  14
  -2   3  -6 36460.0 2996.00  13
  -1   3  -6 52501.3 4046.62  13
  -2   3   6 40531.8 3673.07   7
  -1   3   6 56477.4 4010.04  12
  -2   3   6 48655.8 4025.91  12
  -3   2   6 45915.7 4167.95  12
  -3   1   6 38255.0 2991.78  11
  -3   2   6 44854.5 3330.28  11
  -3   2   6 58149.5 4433.86   6
  -3   1  -6 47153.4 3390.26  11
  -3   2  -6 45006.9 3422.18  11
  -3   1   6 54212.1 4385.58   6
   1   2   6 32739.4 2775.25  10
   2   1   6 42917.2 3278.08  10
  -3   1   6 41986.0 2933.13  18
  -3   2   6 46214.1 3354.56  18
  -3   2  -6 33818.8 2983.56  17
  -2   3  -6 54086.4 3924.67  17
  -1   3  -6 30600.5 2872.70  17
   2   1  -6 42123.1 3106.47   5
   1   2  -6 40880.4 2898.76   5
  -1   3   6 43429.6 3518.57   9
  -2   3   6 44845.0 3344.59   9
  -2   3   7 6333.32 1272.68   9
  -3   1  -7 5005.47 1177.52  16
  -2  -1  -7 6724.49 1179.73  16
  -2   3  -7 15020.5 1794.54  15
  -3   1   7 7082.26 1390.45   8
   2   1   7 7525.62 1335.69   5
  -1   3  -7 7042.01 1148.77  15
   1   2   7 6638.63 1275.42   5
   1   2  -7 6400.39 1233.29  15
   1   2  -7 7553.69 1252.65  14
   2   1  -7 5652.12 1159.82  14
  -2  -1  -7 6934.88 1256.53   8
  -2  -1   7 5522.43 1110.90   8
  -2   3  -7 3780.51 911.686  13
  -1   3  -7 6029.10 1379.24  13
  -1   3   7 10148.4 1488.98  12
  -2   3   7 10437.2 1741.01  12
  -3   2   7 9974.64 1817.92  12
  -2   3   7 3766.91 1194.73   7
  -3   1   7 5956.47 1218.21  11
  -3   2   7 6738.24 1251.94  11
  -3   1  -7 7143.49 1277.62  11
  -3   2  -7 7889.66 1402.53  11
  -3   1   7 7655.40 1541.94   6
  -3   2   7 8119.28 1411.96   6
  -3   1   7 6021.39 1035.70  18
  -3   2   7 7332.65 1324.81  18
   1   2   7 4664.70 1004.09  10
   2   1   7 6665.96 1265.58  10
  -2   3  -7 8606.04 1378.31  17
  -1   3  -7 6583.90 1265.31  17
   2   1  -7 5928.81 1190.20   5
   1   2  -7 5947.34 1073.53   5
  -3   2  -7 5807.65 1169.41  17
  -1   3   7 6243.78 1385.65   9
  -2   3   8 49897.1 3487.25   9
  -3   1  -8 91171.1 4644.37  16
  -2  -1  -8 72273.0 3827.17  16
  -3   1   8 93585.3 4835.34   8
   2   1   8 86671.7 4239.28   5
   1   2   8 81946.5 4246.82   5
   1   2  -8 95016.6 4063.66  14
   2   1  -8 90371.8 4377.99  14
  -2  -1  -8 110192. 4580.04   8
  -2   3  -8 83331.7 4140.54  13
  -1   3  -8 82066.5 4786.05  13
  -2   3   8 86851.5 5024.19   7
  -3   2   8 59914.1 3507.98   7
  -2   3   8 123992. 5316.90  12
  -3   2   8 133380. 5958.22  12
  -3   1   8 87759.4 4306.20  11
  -3   2   8 73066.3 4183.24  11
  -3   1  -8 87520.8 4203.34  11
  -3   2  -8 73862.5 4157.75  11
  -3   1   8 94796.9 4437.84   6
   1   2   8 74902.4 3799.81  10
   2   1   8 80991.1 4217.92  10
  -3   1   8 75078.8 3444.72  18
  -3   2   8 71403.6 3889.75  18
  -3   2  -8 93721.0 4329.68  17
  -2   3  -8 97912.1 4328.43  17
   1   2  -8 70597.3 3541.35   5
  -1   3  -8 93916.8 4449.47  17
   2   1  -8 75752.6 3912.73   5
  -1   3   8 76339.1 4508.16   9
  -3   1  -9 26460.7 2191.39  16
  -2  -1  -9 20937.7 1787.47  16
   2   1   9 24183.4 1943.78   5
   1   2   9 24879.1 2130.14   5
   1   2  -9 21976.5 1699.65  14
   2   1  -9 26342.7 2167.18  14
  -2  -1  -9 25644.3 1888.89   8
  -2   3  -9 22527.0 1877.71  13
  -1   3  -9 27128.1 2417.23  13
  -2   3   9 26840.8 2451.27   7
  -3   2   9 19010.6 1737.16   7
  -2   3   9 28415.1 2099.44  12
  -3   2   9 29127.2 2430.43  12
  -3   1   9 28294.6 2356.31  12
   3  -1  -9 23173.4 1824.12  24
  -3   1   9 24774.8 2037.39  11
  -3   2   9 25220.3 2143.57  11
  -3   1  -9 22344.8 1887.95  11
  -3   2  -9 23804.1 2189.87  11
   2   1   9 23728.9 2011.80  10
  -3   2   9 23592.3 1996.38  18
   1   2  -9 21629.0 1691.02   5
   2   1  -9 23171.7 1964.91   5
  -2   3  -9 21893.2 1732.21  17
  -1   3  -9 25895.9 2012.54  17
  -1   3   9 26938.0 2352.22   9
  -2   3   9 24167.1 2098.24   9
  -3   1 -10 15112.6 1394.82  16
  -2  -1 -10 11480.4 1105.02  16
   2   1  10 13312.1 1243.84   5
   1   2  10 14589.8 1369.69   5
   2   1 -10 13705.9 1335.87  14
  -2  -1 -10 13561.7 1088.68   8
  -1  -2 -10 16100.7 1373.12   8
  -2   3 -10 12332.3 1162.56  13
  -2   3  10 17642.0 1750.55   7
  -1   3 -10 16946.7 1598.29  13
  -3   2  10 11036.0 1098.92   7
  -2   3  10 13702.5 1107.16  12
  -3   2  10 17264.1 1564.53  12
  -3   1  10 14631.0 1465.81  12
   3  -1 -10 14978.4 1255.24  24
  -3   1  10 13018.9 1245.07  11
  -3   2  10 16483.1 1483.93  11
  -3   1 -10 12451.7 1130.76  11
  -3   2 -10 14780.5 1434.82  11
   2   1  10 15453.9 1384.85  10
  -3   2  10 14536.8 1309.27  18
   2   1 -10 12885.2 1236.57   5
  -2   3 -10 12507.7 1138.94  17
  -1   3 -10 13797.3 1187.34  17
  -1   3  10 15858.4 1512.64   9
  -2   3  10 15396.1 1412.49   9
   1   2  11 158222. 3850.41   5
   2   1 -11 155738. 3967.21  14
  -1  -2 -11 184224. 4001.04   8
  -2   3  11 184184. 4642.01   7
  -1   3 -11 118343. 3409.30  13
  -3   2  11 168972. 4050.14  12
  -3   1  11 181106. 4285.94  12
   3  -1 -11 161926. 3599.62  24
  -3   2  11 163902. 3992.20  11
  -3   2 -11 168226. 4115.27  11
   2   1  11 161136. 3869.54  10
  -3   2  11 162953. 3739.85  18
  -2   3 -11 150554. 3530.50  17
  -1   3  11 151671. 3897.53   9
  -2   3  11 167014. 3890.58   9
   0   3   0 543349. 18629.9  15
  -3   0   0 589164. 13560.3   8
   3   0   0 553855. 12371.4  14
  -3   3   0 521545. 9938.52  13
  -3   3   0 554709. 11599.4  11
  -3   3   0 604176. 17531.4   6
  -3   0   0 612762. 15668.0   6
   0   3   0 606735. 13340.3   9
   0   3   0 602810. 14175.0  17
   0   3   1 5247.18 1889.90  15
   0   3  -1 140.369 725.989  15
  -3   0   1 1329.26 776.465   8
   3   0  -1 20.4978 258.517  14
   3   0   1 266.599 317.137  14
  -3   0  -1 238.636 400.744   8
  -3   3   1 1048.78 760.337  12
  -3   3   1 94.6230 274.227  11
  -3   3  -1-1434.69 515.161  11
  -3   3  -1 144.157 691.243   6
  -3   3   1 2096.92 1547.86   6
  -3   0  -1 371.096 477.665   6
  -3   0   1 267.334 914.505   6
  -3   3   1 1146.28 1035.73  18
   0   3   1 3411.98 1231.79   9
   0   3   1 6453.87 1584.00  17
   0   3  -1-41.5598 286.567  17
   0   3   2 168098. 8281.80  15
   0   3  -2 166606. 9813.58  15
  -3   0   2 137778. 5966.74   8
  -3   0  -2 144565. 6159.18   8
   3   0  -2 137444. 5541.67  14
   3   0   2 142034. 5681.32  14
  -3   3   2 137621. 5800.99  12
  -3   3   2 140164. 5240.61  11
  -3   3  -2 130733. 6559.31   6
  -3   3   2 114019. 7552.91   6
  -3   3  -2 150072. 5559.71  11
  -3   0   2 149290. 7946.66   6
  -3   3   2 154265. 6213.16  18
   0   3   2 144098. 5916.55   9
   0   3  -2 146579. 6136.82  17
   0   3   2 156615. 6937.20  17
   0   3   3 234.125 406.819   9
  -3   0  -3 55.5480 262.658  16
   0   3   3-539.711 634.381  15
   0   3  -3-163.091 489.299  15
  -3   0   3 142.445 284.701   8
   3   0  -3 129.439 209.459  14
   3   0   3 1716.04 598.756  14
  -3   0  -3 46.0109 346.299   8
  -3   3   3 281.917 445.597  12
  -3   3   3 82.1441 236.801  11
  -3   3  -3 775.803 392.406  11
  -3   3  -3-188.532 371.055   6
  -3   3   3 1285.64 1140.93   6
  -3   0   3 1544.73 1028.15   6
  -3   3   3 244.886 320.892  18
   0   3  -3 19.8734 263.374  17
   0   3   3 49.1659 296.137  17
   0   3   4 2185.00 644.908   9
  -3   0  -4 1735.15 569.619  16
   0   3  -4 3389.08 1220.29  15
  -3   0   4 2469.10 782.249   8
   3   0  -4 1961.14 655.261  14
   3   0   4 2312.07 675.781  14
  -3   0  -4 1450.61 508.439   8
  -3   3   4 4559.83 1162.14  12
  -3   3   4 2087.39 574.642  11
  -3   3  -4 2572.97 673.255  11
  -3   3  -4 1734.98 580.709   6
  -3   3   4 2205.20 879.403   6
  -3   0   4 2912.76 1166.58   6
  -3   3   4 1735.83 625.622  18
   0   3  -4 2441.39 696.861  17
   0   3   4 1891.48 785.086  17
  -3   0  -5-164.956 340.922  16
   0   3   5-132.781 369.598   9
   0   3  -5 481.777 522.479  15
  -3   0   5-260.269 322.892   8
   3   0  -5 87.7704 250.136  14
   3   0   5 75.8314 246.424  14
  -3   0  -5 1133.19 458.793   8
  -3   3   5 916.394 480.969   7
  -3   3   5 101.079 399.471  12
  -3   3   5 90.7522 179.628  11
  -3   3  -5 382.750 328.892  11
  -3   3  -5 2178.91 844.917   6
  -3   3   5 690.630 548.595   6
  -3   0   5-346.251 426.973   6
  -3   3   5 212.082 257.476  18
   0   3  -5 817.646 465.859  17
   0   3   5 256.736 249.685  17
  -3   0  -6 117308. 4932.27  16
  -3   0   6 124425. 5280.50   8
   0   3  -6 124352. 4749.56  15
  -3   0  -6 165339. 5030.28   8
   3   0  -6 131851. 5143.90  14
   3   0   6 113445. 4495.98  14
  -3   3  -6 158466. 5017.97  13
  -3   3   6 103654. 4706.80   7
  -3   3   6 150812. 6001.30  12
  -3   3  -6 74126.4 3588.77  11
  -3   0   6 189487. 7019.90   6
  -3   3   6 135957. 4928.91  18
  -3   3  -6 125508. 4154.14  17
   0   3  -6 111615. 4516.34  17
   0   3   6 139056. 4941.21   9
   0   3   6 181462. 5605.54  17
  -3   0  -7 175.848 315.104  16
   0   3  -7 161.765 216.566  15
  -3   0   7-41.5119 189.885   8
   3   0  -7 171.230 179.320  14
   3   0   7 351.077 215.725  14
  -3   3   7 496.238 395.783   7
  -3   3   7 392.344 339.890  12
   3   0  -7 155.029 196.518  24
  -3   3  -7 33.6503 139.954  11
  -3   0   7 24.1482 328.528   6
  -3   3   7 155.254 228.089  18
  -3   3  -7 343.169 239.899  17
   0   3  -7-97.1197 298.618  17
  -3   0  -8 305298. 7061.27  16
  -3   0   8 297226. 7200.91   8
   3   0  -8 303481. 6948.45  14
   3   0   8 311839. 6162.56  14
  -3   3   8 293041. 6991.74   7
   3   0  -8 300542. 6066.88  24
  -3   0   8 268436. 6733.95   6
  -3   3   8 322902. 6509.03  18
  -3   3  -8 328976. 6514.48  17
   0   3  -8 294246. 6092.70  17
  -3   0  -9 223.747 150.249  16
  -3   3   9 387.725 235.516  12
   2   2   0 459326. 8897.78   5
  -2   4   0 430798. 9886.35  15
   2   2   0 272212. 9646.63  15
  -2  -2   0 338405. 7317.18   8
  -4   2   0 454156. 8773.80  11
  -4   2   0 429218. 9890.68   6
  -4   2   0 394495. 8284.50  18
   2   2   0 359272. 7296.82  17
   2   2   1 708.075 535.396  15
   2   2  -1 495.258 450.646  15
   2   2  -1-178.238 223.892   5
  -2  -2  -1 899.888 416.405   8
  -4   2   1 396.130 349.568  11
  -4   2  -1 190.310 166.727  11
  -4   2  -1 97.5519 238.385   6
  -4   2   1 1322.87 646.281   6
  -4   2   1 844.879 582.828  18
  -4   2  -1 301.220 295.595  18
   2   2   1 509.347 239.909  17
   2   2   2 112364. 3956.70   5
  -2   4  -2 94563.0 4533.52  15
   2   2  -2 91684.4 5047.29  15
  -2  -2  -2 100431. 3622.04   8
  -4   2   2 110227. 3893.31  11
  -4   2  -2 107827. 3805.52  11
  -4   2   2 105736. 3722.50  18
  -4   2  -2 91319.1 3550.17  18
   2   2   2 95031.3 3547.03  17
   2   2  -2 104363. 3734.36   5
  -2   4   3-80.7408 185.605   9
   2   2  -3-123.645 368.338  15
   2   2  -3-47.3260 147.405   5
   2   2   3 104.828 130.436   5
  -2  -2  -3-156.370 206.860   8
  -4   2   3-158.490 137.518  11
  -4   2  -3 4.63022 120.428  11
  -4   2   3-45.4754 114.221  18
  -4   2  -3-320.595 263.010  18
   2   2   3 211.229 282.647  17
   2   2   4 1190.92 396.746  17
   2   2  -4 1411.13 540.726  15
   2   2  -4 1622.00 386.458   5
   2   2   4 1963.24 439.624   5
  -2  -2  -4 1202.49 330.248   8
  -4   2   4 1618.89 406.746  11
  -4   2  -4 1395.77 359.062  11
  -4   2   4 1695.52 397.741  18
  -4   2  -4 1311.03 388.545  18
  -3  -1   0 89477.8 3404.14   8
   0   0   0    0.00    0.00   0

TITL 2022Uniandes020_Cu_WSeTe_TV0067_Paula2_auto in P6(3)/mmc
REM P6(3)/mmc (#194 in standard setting)
CELL 1.54184   3.307338   3.307338  13.180008  90.0000  90.0000 120.0000
ZERR    2.00   0.000532   0.000532   0.002205   0.0000   0.0000   0.0000
LATT  1
SYMM -y, x-y, z
SYMM -x+y,-x, z
SYMM -x,-y, z+1/2
SYMM  y,-x+y, z+1/2
SYMM  x-y, x, z+1/2
SYMM  y, x,-z
SYMM  x-y,-y,-z
SYMM -x,-x+y,-z
SYMM -y,-x,-z+1/2
SYMM -x+y, y,-z+1/2
SYMM  x, x-y,-z+1/2
SFAC Se W
UNIT 2.00 2.00
TREF
HKLF 4
END
;
_shelx_hkl_checksum   77765

